# vtk DataFile Version 5.1
Generated by LIGGGHTS
ASCII
DATASET POLYDATA
POINTS 100 float
-0.0144402 1.29976 -0.575581 0.0439161 1.31421 -0.585302 0.1682 1.28773 -0.55561 
-0.117586 1.32054 -0.564156 0.16214 1.77133 -0.538929 -0.0447943 1.28311 -0.52658 
0.243265 1.26332 -0.516385 -0.175228 1.32036 -0.541027 0.04629 1.7698 -0.510979 
0.102241 1.7739 -0.536582 0.298967 1.2541 -0.484168 0.106628 1.76056 -0.478247 
0.166518 1.75029 -0.48244 0.22763 1.74779 -0.479209 -0.327662 1.3547 -0.480227 
0.293439 1.74637 -0.471515 -0.309548 1.32567 -0.430945 -0.398312 1.37279 -0.428381 
0.196329 1.74681 -0.428031 0.254684 1.73174 -0.42811 0.341595 1.73727 -0.436751 
0.305076 1.72123 -0.391931 0.388167 1.7281 -0.40005 0.460946 1.24397 -0.360915 
0.25286 1.73875 -0.368132 0.348257 1.74813 -0.359971 0.457957 1.20659 -0.313633 
-0.440171 1.36691 -0.34987 0.413578 1.71584 -0.347097 0.299372 1.72953 -0.330564 
0.362519 1.70921 -0.316288 0.454248 1.70769 -0.303738 0.406779 1.74305 -0.294031 
0.415406 1.69441 -0.259932 0.505724 1.72568 -0.278713 0.527098 1.20894 -0.222038 
0.359802 1.71412 -0.248952 0.472153 1.69448 -0.239977 -0.547772 1.41957 -0.22258 
0.426644 1.68919 -0.201221 0.56653 1.21572 -0.171773 0.483297 1.68285 -0.18218 
-0.567111 1.41741 -0.160426 0.528609 1.6801 -0.141921 0.471922 1.66957 -0.124784 
0.590074 1.21696 -0.0643098 -0.579773 1.42686 -0.102218 0.517327 1.66811 -0.083953 
-0.538782 1.39647 -0.0698074 0.567618 1.68837 -0.0582555 0.489394 1.65521 -0.032284 
0.544942 1.65932 -0.0095175 -0.561436 1.4181 -0.0126619 0.484693 1.64548 0.0271965 
-0.523514 1.4072 0.0325504 -0.571032 1.43827 0.0570605 0.535735 1.64802 0.0586569 
0.424759 1.65341 0.0913155 0.483966 1.64392 0.0888035 -0.556085 1.44209 0.115959 
0.454486 1.62611 0.139274 0.535752 1.6442 0.119105 0.505601 1.62838 0.17063 
0.416342 1.62469 0.187452 -0.520373 1.44911 0.207588 0.485953 1.62057 0.226786 
0.440897 1.66011 0.229416 0.431081 1.60869 0.258743 -0.492193 1.45636 0.265299 
0.508734 1.64191 0.278027 0.413438 1.6562 0.300028 0.407203 1.59908 0.31839 
0.462165 1.62265 0.310724 0.453851 1.13076 0.367946 -0.430147 1.45582 0.313973 
0.321372 1.58141 0.386034 0.386969 1.59607 0.375744 0.440833 1.62402 0.367027 
-0.407441 1.47545 0.382738 0.382369 1.14218 0.455843 -0.367734 1.48715 0.426751 
-0.309758 1.47488 0.41203 0.34859 1.59901 0.436523 -0.251713 1.4904 0.467463 
0.236789 1.56431 0.468559 0.293194 1.57908 0.454067 0.192366 1.60456 0.475734 
-0.306559 1.51078 0.485365 0.111028 1.54268 0.508194 0.169426 1.55317 0.498012 
-0.237475 1.51766 0.518978 -0.141182 1.50889 0.511549 0.215727 1.58195 0.529909 
-0.184563 1.53242 0.545674 -0.0561953 1.53039 0.546101 -0.120875 1.53563 0.561275 
0.0404074 1.54647 0.553247 0.0965843 1.56487 0.563532 0.155302 1.57185 0.553361 
-0.0135265 1.55733 0.578628 
VERTICES 101 100
OFFSETS vtktypeint64
0 1 2 3 4 5 6 7 8 
9 10 11 12 13 14 15 16 17 
18 19 20 21 22 23 24 25 26 
27 28 29 30 31 32 33 34 35 
36 37 38 39 40 41 42 43 44 
45 46 47 48 49 50 51 52 53 
54 55 56 57 58 59 60 61 62 
63 64 65 66 67 68 69 70 71 
72 73 74 75 76 77 78 79 80 
81 82 83 84 85 86 87 88 89 
90 91 92 93 94 95 96 97 98 
99 100 
CONNECTIVITY vtktypeint64
0 1 2 3 4 5 6 7 8 
9 10 11 12 13 14 15 16 17 
18 19 20 21 22 23 24 25 26 
27 28 29 30 31 32 33 34 35 
36 37 38 39 40 41 42 43 44 
45 46 47 48 49 50 51 52 53 
54 55 56 57 58 59 60 61 62 
63 64 65 66 67 68 69 70 71 
72 73 74 75 76 77 78 79 80 
81 82 83 84 85 86 87 88 89 
90 91 92 93 94 95 96 97 98 
99 
POINT_DATA 100
FIELD FieldData 4
id 1 100 int
51 61 49 37 63 88 90 38 8 
47 41 34 62 79 78 50 80 64 
43 16 28 29 18 98 100 5 22 
1 17 69 42 10 96 73 21 66 
84 39 19 83 74 75 95 81 77 
86 35 48 30 44 40 89 14 58 
68 24 72 25 87 53 92 2 82 
57 70 56 65 52 6 3 15 11 
9 71 59 36 97 7 85 94 54 
4 76 67 33 20 12 60 99 91 
45 13 27 46 26 32 55 93 23 
31 
type 1 100 int
1 1 1 1 1 1 1 1 1 
1 1 1 1 1 1 1 1 1 
1 1 1 1 1 1 1 1 1 
1 1 1 1 1 1 1 1 1 
1 1 1 1 1 1 1 1 1 
1 1 1 1 1 1 1 1 1 
1 1 1 1 1 1 1 1 1 
1 1 1 1 1 1 1 1 1 
1 1 1 1 1 1 1 1 1 
1 1 1 1 1 1 1 1 1 
1 1 1 1 1 1 1 1 1 
1 
v 3 100 double
1.8498782636 -0.30863569259 -0.17784621623 1.8863139628 -0.16348627901 0.053911988394 1.8177033022 -0.12955099094 0.62316067141 
1.8372646483 -0.0096088657974 -0.45136310871 0.8427644793 -0.045941426843 0.07511322697 1.8445643575 -0.32092623725 -0.19785149045 
1.8375804774 -0.39476009909 0.83333385872 2.0135782877 -0.45970280479 -0.58145059136 0.82606088188 -0.11715099489 0.065632871 
0.8374002923 -0.084581440311 -0.019567189202 1.6933486166 -0.22418555946 1.2251295407 0.81568003325 -0.15323577213 -0.033623379397 
0.73751966406 -0.051760827877 0.097893851512 0.78032408834 -0.11623073656 0.26824856514 1.4594177797 -0.56087265863 -0.9154309278 
0.58969148755 -0.080153641651 0.32979057672 1.5070140008 -0.41860137565 -0.84909815814 1.1458425782 0.028234541885 -1.1247669889 
0.61922531035 -0.11974926406 0.16948168087 0.6265965113 -0.14236023829 0.34191933029 0.51083263674 -0.11780604556 0.43140125323 
0.58159800793 -0.11269413437 0.49184332921 0.42947920422 -0.10081825894 0.5418124901 1.0747384177 -0.46160292908 1.633555088 
0.50951515301 -0.10996817689 0.33337428357 0.50414643128 -0.088514728594 0.61120621125 1.1952287481 -0.3597170654 1.6977916041 
1.0180057816 -0.20151074032 -1.5904696784 0.38893088256 -0.11702100439 0.55912549053 0.41912799229 -0.068404614356 0.48763213442 
0.40633132481 -0.10597277272 0.59908124187 0.40080009433 -0.12447075906 0.55739525881 0.40365355241 -0.11055910304 0.60445290044 
0.38870121592 -0.13212283083 0.61432287492 0.3167405186 -0.060934614889 0.61185275226 0.74418737258 -0.31391718351 1.7748890192 
0.39850860788 -0.099190591084 0.62146458982 0.40089970478 -0.098327453867 0.65063466572 0.56422388096 -0.15324078035 -1.4896505048 
0.3810342735 -0.1565929644 0.6123173396 0.6724742047 -0.55220453295 2.1480137192 0.38290713708 -0.10072384978 0.653329967 
0.62781667607 -0.11475594203 -1.6353333654 0.18426540287 -0.070237803901 0.86842104583 0.11997745459 -0.092858458032 0.60254559393 
0.22947886013 -0.38898323458 1.8848442493 0.22928235383 -0.29482810373 -1.7245846684 -0.023178330812 -0.15523365511 0.84606117267 
0.16245028264 -0.22358388383 -1.6100419993 -0.025589829819 -0.27079950214 0.9418958179 -0.081756838085 -0.15987893181 0.82981643935 
-0.10673043222 -0.17102563596 0.95804235486 0.087275065276 -0.23529383183 -1.7919740739 -0.024729654871 -0.1267190413 0.84741107203 
-0.24654359911 -0.236154356 -1.4884431138 -0.27821948405 -0.21166717439 -1.619418222 -0.088995638123 -0.12778583522 0.95007494604 
-0.0931916715 -0.13737402688 0.81154981224 -0.15683867516 -0.56922173716 0.79402150584 -0.36662142835 -0.14668369351 -1.6181882412 
-0.2208118754 -0.14935575568 0.90682988021 -0.25266596508 -0.25193523928 0.95492275035 -0.22935495407 -0.14321407304 0.92608763349 
-0.18597757711 -0.24641003664 0.94039882217 -0.8054166446 -0.050274122146 -1.3633877617 -0.44834136647 -0.21560700687 0.84149769318 
-0.43881985919 -0.21510163621 0.99722927335 -0.39225046869 -0.17042690829 1.0909078819 -0.7436699795 -0.1381379983 -1.2968744663 
-0.50216388496 -0.21139669522 0.85414542556 -0.6147299507 -0.2060210514 0.90007944428 -0.47540598801 -0.18302672988 1.1121083409 
-0.50578020692 -0.0801616817 0.94921361181 -1.3728681423 -0.51881990382 1.8152310255 -1.0776566327 -0.18032797976 -1.0339983874 
-0.79487452088 -0.17347852451 0.71105504062 -0.76510934778 -0.075344374918 0.87592322488 -0.70009304861 -0.20254397947 0.84580891732 
-1.1542716312 0.022521932962 -1.0062639581 -1.7222329402 -0.42539857246 1.1581822885 -1.0377209499 -0.33276730289 -0.92727989647 
-1.0390991593 -0.20690895369 -0.78450815483 -0.95850460505 -0.1733768849 0.79923351226 -1.0287205079 -0.084909243037 -0.46149844828 
-1.0889190532 -0.18623335438 0.46237655616 -1.0353299013 -0.29563625624 0.55009591429 -1.2191398808 -0.32001620169 0.30277568738 
-1.2033826656 -0.13301143612 -0.80174768798 -1.229620066 -0.24462465395 0.059252515903 -1.1440363722 -0.31223693171 0.26468941967 
-1.2232124861 -0.082388831785 -0.39195687399 -1.0961776769 -0.094816247716 -0.20546692707 -1.3354430288 -0.2543821135 0.5023007581 
-1.2463663929 -0.086888396522 -0.40193602716 -1.2865533618 -0.13283504869 0.014196681947 -1.217294931 -0.1527127118 -0.12469891061 
-1.2119784854 -0.24393764537 0.051171912466 -1.1875158441 -0.32346003509 0.061489009861 -1.1780379165 -0.16261352055 0.22474210544 
-1.2447154052 -0.076565286848 -0.069321108214 
radius 1 100 double
0.03 0.03 0.03 0.03 0.03 0.03 0.03 0.03 0.03 
0.03 0.03 0.03 0.03 0.03 0.03 0.03 0.03 0.03 
0.03 0.03 0.03 0.03 0.03 0.03 0.03 0.03 0.03 
0.03 0.03 0.03 0.03 0.03 0.03 0.03 0.03 0.03 
0.03 0.03 0.03 0.03 0.03 0.03 0.03 0.03 0.03 
0.03 0.03 0.03 0.03 0.03 0.03 0.03 0.03 0.03 
0.03 0.03 0.03 0.03 0.03 0.03 0.03 0.03 0.03 
0.03 0.03 0.03 0.03 0.03 0.03 0.03 0.03 0.03 
0.03 0.03 0.03 0.03 0.03 0.03 0.03 0.03 0.03 
0.03 0.03 0.03 0.03 0.03 0.03 0.03 0.03 0.03 
0.03 0.03 0.03 0.03 0.03 0.03 0.03 0.03 0.03 
0.03 
