# vtk DataFile Version 5.1
Generated by LIGGGHTS
ASCII
DATASET POLYDATA
POINTS 100 float
-0.0820894 1.80801 -0.553541 -0.0236325 1.79968 -0.564189 0.0283361 1.7831 -0.539204 
0.0874903 1.78045 -0.548887 -0.297543 1.37508 -0.519375 0.179195 1.76549 -0.524139 
-0.0439794 1.78228 -0.510347 -0.210406 1.82535 -0.512051 -0.137086 1.81017 -0.52964 
-0.00252801 1.82566 -0.510293 0.015829 1.7767 -0.480873 0.13058 1.75416 -0.490849 
0.242207 1.75004 -0.486099 0.0820714 1.78945 -0.489818 -0.0779584 1.83048 -0.498064 
-0.277201 1.84567 -0.504952 -0.149463 1.85096 -0.48742 0.18522 1.74443 -0.46772 
0.300079 1.74667 -0.47067 -0.122235 1.79901 -0.472588 -0.0620028 1.7931 -0.453928 
-0.244574 1.8215 -0.460763 -0.182767 1.80824 -0.461624 0.25966 1.73095 -0.429135 
0.325516 1.73066 -0.418761 0.140655 1.75934 -0.430417 -0.00707061 1.80176 -0.431403 
0.0560168 1.78064 -0.436498 0.188707 1.79494 -0.435524 -0.295665 1.82578 -0.42801 
-0.101607 1.81977 -0.417597 -0.396462 1.36319 -0.417537 0.382481 1.72758 -0.400351 
0.207685 1.74747 -0.404119 0.256073 1.78353 -0.400313 -0.220548 1.82037 -0.405772 
-0.160699 1.82407 -0.408127 0.27054 1.73347 -0.370125 0.334675 1.71642 -0.357154 
0.317028 1.77105 -0.375237 0.372377 1.76711 -0.352414 -0.329083 1.83758 -0.363539 
-0.27042 1.83017 -0.373734 0.398301 1.71363 -0.344193 0.456034 1.72495 -0.332428 
-0.388218 1.84487 -0.356529 0.359111 1.7115 -0.297122 0.41737 1.70007 -0.28845 
0.476615 1.70432 -0.27998 -0.437541 1.85756 -0.295324 -0.375741 1.85085 -0.297197 
0.391539 1.70329 -0.234392 0.449578 1.68922 -0.228588 0.514316 1.71017 -0.233607 
0.491467 1.68433 -0.184484 0.431592 1.68687 -0.171388 0.460813 1.73551 -0.190893 
-0.55159 1.40681 -0.160954 0.530331 1.68045 -0.138194 0.471829 1.6704 -0.129451 
0.520725 1.66788 -0.0802231 -0.569358 1.41951 -0.0849736 0.461821 1.66679 -0.0688638 
0.499628 1.65465 -0.0218502 0.556105 1.67231 -0.0317761 -0.591022 1.44453 0.0202523 
0.486663 1.64409 0.0385141 0.54466 1.65662 0.0296143 0.524933 1.64218 0.0850706 
-0.581839 1.46735 0.116022 0.474611 1.62797 0.143788 0.532537 1.64358 0.144581 
-0.535476 1.42997 0.1297 0.504392 1.62989 0.196081 -0.518273 1.4514 0.215469 
0.448976 1.61607 0.214466 0.519311 1.64634 0.252079 0.433966 1.60751 0.271924 
0.482682 1.63143 0.297514 0.429373 1.60904 0.332628 -0.409525 1.45309 0.312133 
0.339466 1.58645 0.361762 -0.448628 1.47964 0.34981 0.394828 1.60186 0.381692 
0.349323 1.59409 0.420848 -0.367514 1.48569 0.425341 0.209094 1.56271 0.431407 
-0.260678 1.48064 0.437306 0.283643 1.57465 0.454228 0.329648 1.60603 0.476563 
-0.215879 1.49588 0.480714 -0.294875 1.50218 0.482495 0.170566 1.55586 0.503708 
0.230482 1.56964 0.487034 -0.0902889 1.51166 0.510209 0.112842 1.55052 0.525568 
-0.139331 1.52242 0.546094 -0.0792522 1.53771 0.563118 -0.0219658 1.53331 0.544255 
0.0760932 1.56684 0.570112 
VERTICES 101 100
OFFSETS vtktypeint64
0 1 2 3 4 5 6 7 8 
9 10 11 12 13 14 15 16 17 
18 19 20 21 22 23 24 25 26 
27 28 29 30 31 32 33 34 35 
36 37 38 39 40 41 42 43 44 
45 46 47 48 49 50 51 52 53 
54 55 56 57 58 59 60 61 62 
63 64 65 66 67 68 69 70 71 
72 73 74 75 76 77 78 79 80 
81 82 83 84 85 86 87 88 89 
90 91 92 93 94 95 96 97 98 
99 100 
CONNECTIVITY vtktypeint64
0 1 2 3 4 5 6 7 8 
9 10 11 12 13 14 15 16 17 
18 19 20 21 22 23 24 25 26 
27 28 29 30 31 32 33 34 35 
36 37 38 39 40 41 42 43 44 
45 46 47 48 49 50 51 52 53 
54 55 56 57 58 59 60 61 62 
63 64 65 66 67 68 69 70 71 
72 73 74 75 76 77 78 79 80 
81 82 83 84 85 86 87 88 89 
90 91 92 93 94 95 96 97 98 
99 
POINT_DATA 100
FIELD FieldData 4
id 1 100 int
17 10 81 48 94 44 73 28 18 
21 39 40 72 77 96 50 5 89 
2 42 84 16 29 92 82 58 83 
75 87 79 69 71 56 25 65 43 
100 57 52 15 3 63 62 9 7 
47 11 97 76 8 34 36 33 20 
27 91 12 86 23 99 93 74 55 
26 31 66 13 32 46 98 67 45 
22 60 41 4 54 85 6 59 90 
70 49 53 68 61 30 51 14 24 
37 88 19 35 78 95 38 80 64 
1 
type 1 100 int
1 1 1 1 1 1 1 1 1 
1 1 1 1 1 1 1 1 1 
1 1 1 1 1 1 1 1 1 
1 1 1 1 1 1 1 1 1 
1 1 1 1 1 1 1 1 1 
1 1 1 1 1 1 1 1 1 
1 1 1 1 1 1 1 1 1 
1 1 1 1 1 1 1 1 1 
1 1 1 1 1 1 1 1 1 
1 1 1 1 1 1 1 1 1 
1 1 1 1 1 1 1 1 1 
1 
v 3 100 double
0.6744755996 -0.10748445771 -0.094629375269 0.69062681873 -0.16433764024 0.035600810374 0.72931466597 -0.08277002241 0.010234185447 
0.73783831038 -0.10820928877 0.067223856735 1.962395573 -0.18454436295 -0.75718528434 0.70568061013 -0.10874639924 0.25222339214 
0.5684846934 -0.091178022215 -0.059513352572 0.6302775153 -0.070638981142 -0.36389687678 0.64407586184 -0.07180776295 -0.16629488554 
0.59318050978 -0.11627916014 -0.082918105712 0.54220996178 -0.1036776247 -0.031549652249 0.68654015137 -0.096805556673 0.22298633566 
0.70402529994 -0.17753542189 0.44943514644 0.66349960624 -0.1239168983 0.063036531472 0.56421120921 -0.095324015786 -0.090393685491 
0.63010804671 -0.16542563448 -0.21880900656 0.58012908586 -0.096683381822 -0.16090859934 0.66504506743 -0.10973536423 0.25637171309 
0.71527913411 -0.010405490548 0.38970680066 0.55165322053 -0.10532837652 -0.14973669658 0.50787939332 -0.07951561159 -0.053925181171 
0.56676737385 -0.47730925104 -0.3394704526 0.47988094957 -0.096412066278 -0.29022733929 0.6812832696 -0.099298157465 0.41092679755 
0.61535517274 -0.089066601324 0.39841267971 0.67186056366 -0.11834259956 0.26847403032 0.50577417978 -0.15425344621 -0.022314042031 
0.52207255833 -0.14793547935 -0.0095766315824 0.66244101353 -0.1250309566 0.27896270577 0.54239861342 -0.10947810638 -0.40915008469 
0.43634862184 -0.11113725148 -0.10874250121 1.6876269824 -0.2942723802 -1.4480174842 0.54874586701 -0.12898650846 0.59222883212 
0.63868849598 -0.10254551614 0.32778548192 0.70255376473 -0.096889725333 0.39036956734 0.42151364519 -0.085646054205 -0.26295642854 
0.41199526999 -0.12978568894 -0.25239515037 0.661790555 -0.15132835792 0.34576569842 0.75084529692 -0.2230730528 0.34872221855 
0.6867771744 -0.16186785627 0.47837527964 0.65589051183 -0.020415617052 0.59031882851 0.31382897965 -0.090487186804 -0.56080786703 
0.35675834271 -0.080781350069 -0.32804927136 0.468493161 -0.11958681861 0.58617073563 0.46199058649 -0.1366734567 0.62078417372 
0.32201966412 -0.13591105095 -0.53886050126 0.35580668225 -0.091029713743 0.51704427616 0.3322929048 -0.1357543597 0.60649537737 
0.31660012556 -0.10036816026 0.69251089437 0.33191164379 -0.048466290316 -0.58200229643 0.35020627404 -0.099249067029 -0.50869962465 
0.37087147165 -0.1534900368 0.62513655666 0.37106413199 -0.11615710211 0.71792198502 0.33256563208 -0.080634767185 0.68021298301 
0.468179101 -0.10217942547 0.71691270388 0.40481576621 -0.16728984467 0.7223012437 0.38633417529 -0.1435871205 0.75600830241 
0.41888475091 -0.058385858384 -2.0229846007 0.17969979882 -0.089908326925 0.86979505644 0.14290353025 -0.093224538325 0.62072069296 
0.20665488874 -0.1283524247 0.86133772807 0.04058066354 -0.15146954951 -1.9899573666 0.17265158872 -0.14588926133 0.68332824395 
-0.014648865887 -0.1641990936 0.90199590212 0.028180098756 -0.24480498916 1.0022950016 -0.30430659625 -0.25269689551 -1.849763346 
0.022580351054 -0.13442124028 0.94337913367 0.015585630007 -0.052105931735 1.0127743616 0.020451775608 -0.13680738037 0.95389081524 
-0.22947391245 -0.32281924699 -1.8211180334 -0.23850959519 -0.15770990326 1.0342131729 -0.26182645476 -0.071818814305 0.98932113963 
-0.20619229297 -0.34900409668 -1.8891751079 -0.41225650157 -0.18517736621 0.89432534029 -0.84348825613 -0.05493795407 -1.432529847 
-0.38544648493 -0.16932637194 0.98551493629 -0.61015596053 -0.31011220945 0.99950003905 -0.42820452269 -0.16128877137 0.97487116164 
-0.5664826312 -0.050809520354 1.1366727349 -0.39877415598 -0.7432913181 1.0655251051 -1.2357170712 -0.24365621675 -1.3147748356 
-0.82245898407 -0.17365516458 0.66550374937 -1.1470989631 -0.19106544762 -1.3401801146 -0.81006752341 -0.039016016557 0.96085080778 
-1.010259839 -0.18730319657 0.78806686226 -1.4147556505 -0.31168301563 -1.1088427444 -1.0201573463 -0.18446862435 0.47884802666 
-1.3759896103 -0.26680764694 -1.0179782858 -1.0863161542 -0.29228035219 0.62871250983 -1.1720087613 -0.31292450164 0.83001795004 
-1.5587234129 -0.29795170316 -0.71055190353 -1.4527711773 -0.26701353453 -1.0321533604 -1.2972438572 -0.34903819555 0.23620203993 
-1.1362427021 -0.17747065994 0.52261208855 -1.57280263 -0.30273725854 -0.31783335787 -1.2358948824 -0.10472888415 0.38755386866 
-1.5582280392 -0.16248741664 -0.36577525182 -1.5302310028 -0.36890784393 -0.29383083436 -1.3957686301 -0.16620730119 -0.038580604033 
-1.4120009268 -0.13054296248 0.2600193657 
radius 1 100 double
0.03 0.03 0.03 0.03 0.03 0.03 0.03 0.03 0.03 
0.03 0.03 0.03 0.03 0.03 0.03 0.03 0.03 0.03 
0.03 0.03 0.03 0.03 0.03 0.03 0.03 0.03 0.03 
0.03 0.03 0.03 0.03 0.03 0.03 0.03 0.03 0.03 
0.03 0.03 0.03 0.03 0.03 0.03 0.03 0.03 0.03 
0.03 0.03 0.03 0.03 0.03 0.03 0.03 0.03 0.03 
0.03 0.03 0.03 0.03 0.03 0.03 0.03 0.03 0.03 
0.03 0.03 0.03 0.03 0.03 0.03 0.03 0.03 0.03 
0.03 0.03 0.03 0.03 0.03 0.03 0.03 0.03 0.03 
0.03 0.03 0.03 0.03 0.03 0.03 0.03 0.03 0.03 
0.03 0.03 0.03 0.03 0.03 0.03 0.03 0.03 0.03 
0.03 
