# vtk DataFile Version 5.1
Generated by LIGGGHTS
ASCII
DATASET POLYDATA
POINTS 100 float
-0.137549 1.33983 -0.571888 0.149529 1.773 -0.542695 -0.0855589 1.8035 -0.540641 
-0.0286731 1.79875 -0.559232 0.0308829 1.79416 -0.565714 -0.25091 1.34257 -0.521629 
0.00454872 1.77517 -0.512923 0.0897898 1.77502 -0.535961 -0.224208 1.83431 -0.523281 
-0.155435 1.81809 -0.539317 0.0507512 1.81887 -0.514704 0.0603019 1.76811 -0.484167 
0.237102 1.75514 -0.499594 -0.142001 1.80025 -0.483631 -0.0777884 1.79119 -0.482429 
0.135953 1.77986 -0.484631 -0.0316585 1.82271 -0.504308 -0.102893 1.8431 -0.499018 
0.183774 1.74598 -0.471801 0.294575 1.73982 -0.451249 -0.0195351 1.78641 -0.458096 
-0.257647 1.81943 -0.455761 -0.20149 1.80874 -0.473988 0.235309 1.73572 -0.442838 
0.352627 1.74136 -0.436162 0.0993683 1.76774 -0.438632 0.0352141 1.78856 -0.433645 
-0.126841 1.81375 -0.427171 -0.066514 1.81051 -0.426757 0.31214 1.72263 -0.396043 
0.372623 1.72191 -0.383041 0.191652 1.7511 -0.404658 0.241796 1.78391 -0.407621 
-0.304637 1.82895 -0.410682 -0.243277 1.82415 -0.3977 -0.185905 1.81513 -0.416402 
-0.360675 1.84317 -0.39463 0.257945 1.73661 -0.374429 0.424892 1.71942 -0.353686 
0.308175 1.774 -0.36502 0.376202 1.70531 -0.321455 0.320646 1.72255 -0.33665 
0.366724 1.76279 -0.335818 -0.403464 1.84848 -0.338467 -0.343739 1.84253 -0.337075 
-0.499902 1.40123 -0.310451 0.43048 1.70325 -0.295603 0.42127 1.762 -0.303587 
0.488073 1.71448 -0.283064 0.38562 1.7049 -0.255793 0.440752 1.69012 -0.237301 
0.499605 1.69593 -0.227176 -0.540693 1.41493 -0.234923 0.479673 1.68025 -0.172505 
0.421143 1.69105 -0.180535 0.5361 1.70009 -0.179159 0.48811 1.72408 -0.132302 
0.452579 1.67606 -0.119091 0.523728 1.67634 -0.125106 -0.580647 1.43145 -0.122074 
0.479934 1.66041 -0.0680219 0.539351 1.66874 -0.0676546 -0.587218 1.43635 -0.0375518 
0.475169 1.65371 -0.00854505 0.535096 1.6572 -0.0088969 -0.540504 1.40082 -0.0250878 
0.491756 1.64235 0.0549474 0.549459 1.659 0.049358 0.481866 1.63253 0.114166 
0.539819 1.64802 0.107554 -0.569148 1.4464 0.092846 0.517948 1.63546 0.162014 
-0.49937 1.43597 0.197839 0.443679 1.61559 0.213211 0.503877 1.6322 0.22025 
-0.532595 1.47141 0.233132 0.47001 1.61647 0.267321 0.413027 1.60402 0.281389 
0.45577 1.62329 0.328605 -0.465175 1.46739 0.317552 0.395582 1.59546 0.338154 
-0.367619 1.45832 0.346188 0.429899 1.62167 0.383521 -0.404807 1.47873 0.388912 
0.271156 1.57246 0.41377 0.375509 1.59718 0.394767 -0.339213 1.47699 0.413247 
0.322763 1.59266 0.453205 -0.2121 1.49158 0.469491 0.122475 1.54743 0.464939 
0.259094 1.5737 0.472876 0.185554 1.55672 0.493135 -0.258814 1.50679 0.503936 
-0.198155 1.51351 0.525525 -0.135694 1.51735 0.53296 0.060683 1.53266 0.509855 
0.133568 1.55424 0.523654 0.228275 1.58437 0.525269 0.01271 1.5378 0.54594 
-0.0409299 1.55023 0.573005 
VERTICES 101 100
OFFSETS vtktypeint64
0 1 2 3 4 5 6 7 8 
9 10 11 12 13 14 15 16 17 
18 19 20 21 22 23 24 25 26 
27 28 29 30 31 32 33 34 35 
36 37 38 39 40 41 42 43 44 
45 46 47 48 49 50 51 52 53 
54 55 56 57 58 59 60 61 62 
63 64 65 66 67 68 69 70 71 
72 73 74 75 76 77 78 79 80 
81 82 83 84 85 86 87 88 89 
90 91 92 93 94 95 96 97 98 
99 100 
CONNECTIVITY vtktypeint64
0 1 2 3 4 5 6 7 8 
9 10 11 12 13 14 15 16 17 
18 19 20 21 22 23 24 25 26 
27 28 29 30 31 32 33 34 35 
36 37 38 39 40 41 42 43 44 
45 46 47 48 49 50 51 52 53 
54 55 56 57 58 59 60 61 62 
63 64 65 66 67 68 69 70 71 
72 73 74 75 76 77 78 79 80 
81 82 83 84 85 86 87 88 89 
90 91 92 93 94 95 96 97 98 
99 
POINT_DATA 100
FIELD FieldData 4
id 1 100 int
94 48 18 17 10 71 73 81 50 
28 21 39 44 29 42 77 96 5 
40 72 84 79 16 89 2 75 83 
100 69 92 82 58 87 63 62 43 
47 25 56 65 52 57 15 8 34 
86 9 3 7 11 97 76 74 33 
36 20 12 91 27 66 99 23 98 
55 93 22 26 31 13 32 41 46 
90 67 45 49 60 4 54 61 85 
51 6 88 70 59 37 53 78 30 
68 14 38 80 64 19 35 24 95 
1 
type 1 100 int
1 1 1 1 1 1 1 1 1 
1 1 1 1 1 1 1 1 1 
1 1 1 1 1 1 1 1 1 
1 1 1 1 1 1 1 1 1 
1 1 1 1 1 1 1 1 1 
1 1 1 1 1 1 1 1 1 
1 1 1 1 1 1 1 1 1 
1 1 1 1 1 1 1 1 1 
1 1 1 1 1 1 1 1 1 
1 1 1 1 1 1 1 1 1 
1 1 1 1 1 1 1 1 1 
1 
v 3 100 double
2.1411256823 -0.28918887794 -0.21387842403 0.81968386105 -0.049031550028 0.085409779681 0.61768395351 -0.088415299526 -0.11263991408 
0.63077403256 -0.11098039556 -0.064596234177 0.65793762127 -0.012945826101 0.016900446743 1.9997642012 -0.13670962755 -1.0051497684 
0.64384755512 -0.074693096025 0.0097300993834 0.8115828651 -0.12485367068 0.087996796903 0.70660658456 -0.1326664901 -0.26836566271 
0.76130987962 -0.045213419797 -0.2811519914 0.72019029744 -0.063400757747 -0.0041344784013 0.5775790363 -0.1119132032 -0.044547681715 
0.72920620704 -0.13545904545 0.32334890957 0.52223704076 -0.11179258962 -0.2484356423 0.56559546439 -0.092598845236 -0.10842120603 
0.70977220506 -0.10080958214 0.07126497844 0.58649289658 -0.10265582795 -0.07169129357 0.57349481487 -0.087123337206 -0.12100995903 
0.65490167933 -0.1097340232 0.26007369406 0.62869111816 -0.11798990438 0.45270177024 0.5479482592 -0.08522405784 -0.046688016469 
0.46472284676 -0.045563301546 -0.28443525323 0.50238656285 -0.079928906311 -0.14678113848 0.61185126325 -0.13204131279 0.33057461543 
0.62567441422 -0.11801792261 0.46896990815 0.57660353819 -0.11878811146 -0.045790070622 0.54578780003 -0.17444073053 -0.033875730075 
0.43640920663 -0.18916877891 -0.20839633275 0.44093995741 -0.091025153819 -0.082860046128 0.62192554083 -0.12192538754 0.46229027955 
0.51348968131 -0.094895255407 0.5201419387 0.6335565191 -0.097432409725 0.34210729593 0.66315441202 -0.13738940144 0.36939135763 
0.32981848339 -0.11478092039 -0.62223032141 0.36916122986 -0.078979359167 -0.25798988276 0.44505087854 -0.041427877368 -0.13384444836 
0.40332193334 -0.042343085588 -0.43008450509 0.60186012672 -0.12707928488 0.41315208633 0.45379679088 -0.14266709871 0.6218298817 
0.54647986752 -0.13786028214 0.41586665018 0.40471882685 -0.11786047857 0.56271589413 0.42171774684 -0.14380826553 0.49048510752 
0.56111629684 -0.11518861837 0.47421673781 0.47399246655 -0.11412871846 -0.52628282735 0.48005238732 -0.10862620746 -0.45338278866 
1.0394479899 0.051474304486 -1.5124676779 0.36648489099 -0.14658985723 0.65887190746 0.53106115461 -0.12883680202 0.59451551796 
0.34973436935 -0.064527264476 0.67429294449 0.27794124649 -0.06132089452 0.5558950541 0.22590566939 -0.12154163186 0.66214824566 
0.22827583208 -0.15217353822 0.66523898186 0.58999217699 -0.16261540793 -1.7215749607 0.26621106116 -0.1317146844 0.72591392321 
0.27900560765 -0.11710185693 0.68047628366 0.30200176706 -0.12696839794 0.69185582466 0.26605592767 -0.16341104017 0.76757322854 
0.22976691667 -0.17158401414 0.6975592847 0.3616787603 -0.091764530476 0.76803169324 0.28609467142 -0.42094148307 -1.7411064446 
0.033178889897 -0.1414521219 0.81080097812 0.040196009579 -0.19342395276 0.8459936827 0.17928788207 -0.23685681213 -2.0291433835 
0.13018572937 -0.29002450655 0.81592750606 0.12580552125 -0.11057490786 0.87002519661 0.11241193104 -0.29934335257 -1.9637850145 
-0.15241656157 -0.16580960832 1.0041112649 -0.16386797766 -0.18409907278 0.94851091212 -0.17003624332 -0.13085694062 0.89022299788 
-0.16036582515 -0.18181273656 0.9509017448 -0.44282289797 -0.075709874607 -1.6095924019 -0.2483638796 -0.066149417911 0.94574003077 
-1.0471381251 -0.20807317277 -1.5137543457 -0.45384058163 -0.15939231402 0.83785208119 -0.44075627429 -0.20540612214 0.89099596382 
-0.91959398205 -0.061710512285 -1.5643012748 -0.5152343336 -0.088732494867 0.86512685438 -0.51932004625 -0.15080033058 0.79413135125 
-0.93724939148 -0.32872488856 0.89994247297 -1.1100258995 -0.31238231424 -1.4701417206 -0.51672631608 -0.15102156097 0.79504702749 
-1.258305794 -0.23998903478 -1.3130758834 -0.71564543591 -0.17601510166 0.98984770592 -1.2432634311 -0.147462436 -1.3508021954 
-0.88675770999 -0.17134503856 0.60576359906 -0.83415221243 -0.15612958422 0.67943375404 -1.5248018919 -0.23360815587 -0.94355378374 
-0.99889198741 -0.18459782102 0.82159452106 -1.4574186248 -0.27660516878 -0.65911440093 -1.1440911664 -0.21261053357 0.35533162564 
-1.2534244228 -0.20940189318 0.54291426433 -1.316323935 -0.29411876164 0.38719184389 -1.4761955748 -0.32040671336 -0.66520500275 
-1.4652293618 -0.27608477047 -0.65860572469 -1.4493807939 -0.13904500823 -0.27557283546 -1.3499120469 -0.16522937072 -0.036659145658 
-1.2921095484 -0.12927953122 0.35949158805 -1.3435664835 -0.2770733837 0.45262873909 -1.2911706984 -0.081854117579 0.084312824809 
-1.4935234068 -0.25169072369 -0.20288603504 
radius 1 100 double
0.03 0.03 0.03 0.03 0.03 0.03 0.03 0.03 0.03 
0.03 0.03 0.03 0.03 0.03 0.03 0.03 0.03 0.03 
0.03 0.03 0.03 0.03 0.03 0.03 0.03 0.03 0.03 
0.03 0.03 0.03 0.03 0.03 0.03 0.03 0.03 0.03 
0.03 0.03 0.03 0.03 0.03 0.03 0.03 0.03 0.03 
0.03 0.03 0.03 0.03 0.03 0.03 0.03 0.03 0.03 
0.03 0.03 0.03 0.03 0.03 0.03 0.03 0.03 0.03 
0.03 0.03 0.03 0.03 0.03 0.03 0.03 0.03 0.03 
0.03 0.03 0.03 0.03 0.03 0.03 0.03 0.03 0.03 
0.03 0.03 0.03 0.03 0.03 0.03 0.03 0.03 0.03 
0.03 0.03 0.03 0.03 0.03 0.03 0.03 0.03 0.03 
0.03 
