# vtk DataFile Version 5.1
Generated by LIGGGHTS
ASCII
DATASET POLYDATA
POINTS 59 float
-0.682956 -0.789409 -0.700556 -0.696801 -0.625188 -0.664818 -0.685613 -0.533991 -0.629583 
-0.00725864 0.328067 -0.603319 -0.0659793 0.302133 -0.573133 0.115458 0.286287 -0.572823 
0.161521 0.326351 -0.589416 0.1767 0.278892 -0.555253 -0.137897 0.31843 -0.56681 
-0.655016 -0.494298 -0.545268 0.252883 0.263046 -0.523233 -0.165515 0.295574 -0.517454 
-0.230463 0.342896 -0.541607 -0.298457 0.337471 -0.499093 -0.241493 0.310947 -0.490019 
-0.663885 -0.393527 -0.485405 0.33673 0.235594 -0.457662 -0.349528 0.353436 -0.469558 
0.38205 0.221295 -0.419019 0.436545 0.239421 -0.388778 -0.390671 0.354238 -0.425361 
-0.402913 0.337276 -0.368834 -0.469965 0.381432 -0.353899 0.503879 0.212163 -0.284017 
-0.623505 -0.296364 -0.302665 -0.462966 0.356202 -0.298611 -0.515846 0.389622 -0.290794 
0.533213 0.205098 -0.224427 -0.646513 -0.145085 -0.240988 -0.545455 0.405493 -0.229287 
0.563445 0.201285 -0.167635 -0.637132 -0.106174 -0.168077 0.556357 0.177675 -0.107402 
-0.584302 0.430074 -0.138064 0.59455 0.209263 -0.0733698 -0.610575 -0.0912928 -0.0662381 
0.600956 0.191601 -0.0096184 -0.582506 -0.0850452 -0.00230271 -0.59238 -0.0399156 0.0662805 
0.579976 0.175509 0.125635 0.564187 0.17095 0.189971 -0.56954 -0.0174005 0.199908 
-0.527395 -0.0309966 0.259649 0.504769 0.13986 0.310549 -0.490097 -0.024771 0.324183 
0.461865 0.123964 0.358143 0.414253 0.125031 0.427169 -0.355615 -0.0190639 0.446343 
-0.395507 0.0275614 0.45833 0.304259 0.0806958 0.483832 0.230063 0.0587519 0.499865 
-0.248197 0.00322907 0.519666 0.0950457 0.0366354 0.539103 0.262556 0.100205 0.528614 
-0.198492 0.0311673 0.552095 0.142189 0.0640924 0.564538 0.203861 0.0798393 0.549551 
-0.128347 0.0349589 0.573539 0.0374957 0.0465834 0.579349 
VERTICES 60 59
OFFSETS vtktypeint64
0 1 2 3 4 5 6 7 8 
9 10 11 12 13 14 15 16 17 
18 19 20 21 22 23 24 25 26 
27 28 29 30 31 32 33 34 35 
36 37 38 39 40 41 42 43 44 
45 46 47 48 49 50 51 52 53 
54 55 56 57 58 59 
CONNECTIVITY vtktypeint64
0 1 2 3 4 5 6 7 8 
9 10 11 12 13 14 15 16 17 
18 19 20 21 22 23 24 25 26 
27 28 29 30 31 32 33 34 35 
36 37 38 39 40 41 42 43 44 
45 46 47 48 49 50 51 52 53 
54 55 56 57 58 
POINT_DATA 59
FIELD FieldData 4
id 1 59 int
31 23 33 17 18 5 96 10 69 
55 42 29 100 16 50 91 21 62 
84 83 28 34 43 77 99 63 79 
39 27 8 73 20 75 47 81 76 
44 97 11 48 89 36 12 40 52 
72 2 3 7 58 25 57 56 87 
9 92 82 65 15 
type 1 59 int
1 1 1 1 1 1 1 1 1 
1 1 1 1 1 1 1 1 1 
1 1 1 1 1 1 1 1 1 
1 1 1 1 1 1 1 1 1 
1 1 1 1 1 1 1 1 1 
1 1 1 1 1 1 1 1 1 
1 1 1 1 1 
v 3 59 double
-0.23610702131 -3.8884462416 -2.1112355067 -0.38631279904 -3.2834158725 -2.2571114787 -0.30700137325 -3.0972125569 -2.3958152382 
2.0267289106 -0.1359885503 0.077854906351 2.0027422365 -0.58746516543 -0.22844675999 2.0057151376 -0.3867571041 0.30254429892 
1.7639411496 -0.10214487684 0.88490247164 1.9413901026 -0.23962102312 0.69555775168 2.0349969053 -0.26626914859 -0.29484459784 
-0.32776194208 -2.8455427059 -2.2284296546 2.0258741305 -0.4071754693 0.94795805721 1.6921497459 -0.4061581837 -0.44583423999 
2.0726460608 -0.40464787667 -0.85081563054 1.7847500994 -0.1577109987 -0.87206445159 1.8364206437 -0.2701500717 -0.83759018767 
-0.37813708895 -2.4998869259 -2.2748288202 1.6542656869 -0.46811700207 1.2543829646 1.5956730187 -0.38108927911 -1.1878350554 
1.5496890979 -0.38211191619 1.4224066457 1.3772842783 -0.20301423469 1.5912738222 1.4232701679 -0.26416575853 -1.3421845819 
1.0923736029 -0.29880632022 -1.3972424048 1.0894861104 -0.074810178711 -1.5716398891 1.0241498001 -0.031761397966 1.9582209153 
-0.17870601761 -2.2857464137 -2.0574682256 1.0606281604 -0.23290430778 -1.7736781439 1.1361025231 -0.10182953177 -1.7633081599 
1.0130187904 -0.34798819569 1.9841648563 -0.33012956942 -1.4809496534 -2.1757143002 0.82046417216 -0.32699462823 -1.9713552351 
0.91335030693 -0.34339226639 2.1285240085 -0.36763351087 -1.16284516 -2.1704175442 0.38050037522 -0.27260483604 2.0825114603 
0.26614416678 -0.32813546191 -2.0041889572 0.31415404179 -0.2342724416 2.1146606637 -0.23693407861 -1.0303336055 -2.2269389807 
0.11705301062 -0.47185383561 2.0968270388 -0.23751994856 -0.50080856975 -2.0537422379 -0.19159917975 -0.48507291624 -2.1239892259 
-0.34396975708 -0.61184397432 2.0771491119 -0.9405824334 -0.34722016024 1.9025228736 -0.8436761081 -0.34968237966 -2.0383466634 
-1.1131348934 -0.097339128123 -2.0375306444 -1.459555137 -0.34621382944 1.6050647171 -1.3858802793 -0.35525608455 -1.7862311741 
-1.3347939704 -0.46046899528 1.830564197 -1.7470767181 -0.20763894685 1.1776342663 -1.7449452072 -0.32155251985 -1.3091607919 
-1.5023414436 -0.42604176915 -1.1605976573 -1.5164620358 -0.24486705638 1.3050017815 -1.7417270948 -0.26773789884 0.79158773475 
-2.0771556204 -0.36854096247 -0.86392155908 -1.9812425246 -0.23545237167 0.41855498785 -1.7300292907 -0.23460765636 0.71915616276 
-2.0447830169 -0.23492306415 -0.74148002136 -1.9019676733 -0.15554497312 0.24249356105 -1.7583103839 -0.23662152347 0.76970450374 
-2.1008554702 -0.25317066893 -0.21992871383 -2.1852714299 -0.36917060386 0.28028245942 
radius 1 59 double
0.03 0.03 0.03 0.03 0.03 0.03 0.03 0.03 0.03 
0.03 0.03 0.03 0.03 0.03 0.03 0.03 0.03 0.03 
0.03 0.03 0.03 0.03 0.03 0.03 0.03 0.03 0.03 
0.03 0.03 0.03 0.03 0.03 0.03 0.03 0.03 0.03 
0.03 0.03 0.03 0.03 0.03 0.03 0.03 0.03 0.03 
0.03 0.03 0.03 0.03 0.03 0.03 0.03 0.03 0.03 
0.03 0.03 0.03 0.03 0.03 
