# vtk DataFile Version 5.1
Generated by LIGGGHTS
ASCII
DATASET POLYDATA
POINTS 100 float
0.157468 1.77262 -0.54129 -0.0562966 1.8027 -0.554242 0.0427114 1.79398 -0.565552 
0.0982497 1.77908 -0.548429 -0.162348 1.82155 -0.543895 0.0527008 1.76899 -0.510701 
-0.108765 1.80218 -0.525102 -0.00454592 1.78311 -0.530218 -0.214366 1.82763 -0.514525 
0.114495 1.75665 -0.494626 0.173956 1.75198 -0.487422 0.24733 1.75453 -0.498525 
-0.161695 1.80226 -0.487085 -0.0439758 1.81318 -0.496436 0.0464619 1.82175 -0.482818 
-0.120697 1.84604 -0.485638 0.324659 1.74077 -0.449892 0.0610956 1.77282 -0.451322 
-0.0936865 1.79567 -0.467398 0.00488174 1.78014 -0.470989 0.162576 1.80014 -0.453506 
0.222194 1.78659 -0.454481 -0.258007 1.82635 -0.473369 0.105136 1.80985 -0.468342 
-0.191666 1.84853 -0.463068 0.250089 1.73462 -0.441758 0.37615 1.73757 -0.419189 
0.119651 1.76392 -0.43241 0.182936 1.74994 -0.427725 -0.04168 1.80035 -0.437851 
-0.318605 1.83598 -0.431092 -0.225721 1.81855 -0.423403 -0.16299 1.81104 -0.426033 
-0.257475 1.86901 -0.431185 0.228834 1.74364 -0.386371 0.299681 1.72279 -0.398338 
-0.274991 1.82846 -0.39058 -0.105007 1.82218 -0.414779 -0.382938 1.8615 -0.419427 
0.351659 1.71604 -0.368825 0.421324 1.72782 -0.368776 -0.345024 1.86374 -0.372982 
-0.189588 1.84015 -0.380652 0.389014 1.70686 -0.322795 0.281212 1.73347 -0.342147 
0.38156 1.76405 -0.339432 -0.396954 1.84676 -0.348187 -0.300294 1.84373 -0.338363 
-0.239242 1.85322 -0.349242 0.44735 1.70828 -0.308201 0.331452 1.72005 -0.312221 
-0.355514 1.84784 -0.30481 0.399162 1.70001 -0.263875 0.45829 1.6952 -0.250586 
0.51238 1.70533 -0.226679 -0.465034 1.86708 -0.240376 -0.403255 1.8593 -0.252017 
0.411667 1.69506 -0.204569 0.469036 1.68325 -0.191556 0.524297 1.68588 -0.168336 
-0.48855 1.87751 -0.179746 -0.430167 1.86984 -0.191282 -0.572787 1.44442 -0.177624 
0.433241 1.68587 -0.143475 0.487741 1.67131 -0.123043 0.534727 1.6704 -0.0842048 
0.469113 1.66347 -0.0665497 0.488015 1.6513 -0.00983385 0.545564 1.66178 -0.0231888 
-0.595746 1.4564 -0.0176907 0.473593 1.64114 0.0515372 0.532737 1.649 0.0452035 
0.578832 1.68269 0.0267564 0.468055 1.63064 0.115877 0.487855 1.68561 0.102259 
0.524289 1.637 0.136432 0.493298 1.62372 0.209439 0.44348 1.60984 0.261177 
0.497905 1.63355 0.26987 -0.500225 1.46348 0.26623 0.38556 1.60039 0.285455 
0.42995 1.60726 0.325234 -0.454415 1.46072 0.318578 0.365883 1.58982 0.357512 
-0.416772 1.47678 0.375879 0.340386 1.59069 0.423612 0.401879 1.61154 0.400453 
-0.261016 1.4899 0.46426 -0.368912 1.50335 0.44303 0.281098 1.57504 0.457487 
-0.317663 1.50714 0.475343 0.22731 1.56705 0.48332 -0.08939 1.5107 0.507701 
0.0729689 1.54111 0.524007 0.230359 1.60071 0.534748 -0.132406 1.52344 0.548781 
0.116873 1.56904 0.561493 0.176817 1.57522 0.546219 -0.0247185 1.55187 0.573645 
0.0542127 1.56624 0.575163 
VERTICES 101 100
OFFSETS vtktypeint64
0 1 2 3 4 5 6 7 8 
9 10 11 12 13 14 15 16 17 
18 19 20 21 22 23 24 25 26 
27 28 29 30 31 32 33 34 35 
36 37 38 39 40 41 42 43 44 
45 46 47 48 49 50 51 52 53 
54 55 56 57 58 59 60 61 62 
63 64 65 66 67 68 69 70 71 
72 73 74 75 76 77 78 79 80 
81 82 83 84 85 86 87 88 89 
90 91 92 93 94 95 96 97 98 
99 100 
CONNECTIVITY vtktypeint64
0 1 2 3 4 5 6 7 8 
9 10 11 12 13 14 15 16 17 
18 19 20 21 22 23 24 25 26 
27 28 29 30 31 32 33 34 35 
36 37 38 39 40 41 42 43 44 
45 46 47 48 49 50 51 52 53 
54 55 56 57 58 59 60 61 62 
63 64 65 66 67 68 69 70 71 
72 73 74 75 76 77 78 79 80 
81 82 83 84 85 86 87 88 89 
90 91 92 93 94 95 96 97 98 
99 
POINT_DATA 100
FIELD FieldData 4
id 1 100 int
2 48 44 72 10 89 81 40 17 
92 82 56 73 77 87 21 7 25 
39 58 15 3 18 65 96 9 76 
57 52 75 28 42 84 5 11 97 
29 83 50 33 20 16 69 27 36 
12 79 43 100 23 91 62 99 93 
31 47 63 55 26 32 8 34 94 
13 46 45 67 4 60 71 85 6 
54 70 59 53 68 14 24 86 30 
35 74 95 66 1 19 41 98 64 
22 78 90 51 80 49 37 38 61 
88 
type 1 100 int
1 1 1 1 1 1 1 1 1 
1 1 1 1 1 1 1 1 1 
1 1 1 1 1 1 1 1 1 
1 1 1 1 1 1 1 1 1 
1 1 1 1 1 1 1 1 1 
1 1 1 1 1 1 1 1 1 
1 1 1 1 1 1 1 1 1 
1 1 1 1 1 1 1 1 1 
1 1 1 1 1 1 1 1 1 
1 1 1 1 1 1 1 1 1 
1 1 1 1 1 1 1 1 1 
1 
v 3 100 double
0.5952854284 -0.074039867466 0.2214305042 0.58833891421 -0.10570947339 -0.053802561154 0.61369206852 -0.10325115206 0.094942700035 
0.58970630622 -0.13364457481 0.173923735 0.53001081784 -0.11298004946 -0.16669476584 0.56423714927 -0.11952118488 0.14592413868 
0.54188347264 -0.061642617001 -0.1364532767 0.56252596837 -0.077631341838 0.06314515504 0.50466693164 -0.078851202551 -0.23345820587 
0.61484807713 -0.13068677038 0.1137391616 0.61855564921 -0.089653352228 0.21001206612 0.71226598682 -0.11698116131 0.27480594404 
0.46407384248 -0.075037917296 -0.15273593722 0.50839507863 -0.0025295098948 -0.025060512679 0.58713107969 -0.10375169907 0.12469927127 
0.459101416 -0.070431741897 -0.13914489942 0.71938835173 -0.066440620274 0.30624557415 0.6178983538 -0.093456850761 0.12729137109 
0.43228913602 -0.076400603181 -0.1039140298 0.63151455795 -0.10847696044 0.051396652759 0.64253047268 -0.10515768243 0.24469599202 
0.7092703135 -0.10502921554 0.26649702912 0.4549145615 -0.042267791802 -0.28483455134 0.67500072527 -0.12262060306 0.19365073506 
0.4576251699 -0.081388579187 -0.21165636168 0.7743202329 -0.066308241193 0.31498636113 0.57479219859 -0.21161381724 0.54199268184 
0.61505227815 -0.11529266466 0.18375441533 0.65897372973 -0.1135642645 0.21257016326 0.36377023743 0.011831562629 0.020544907248 
0.38181701934 -0.067578158777 -0.32422999985 0.40259465926 -0.082796731035 -0.2575305158 0.42056908553 -0.074841896555 -0.17636683635 
0.46174784191 -0.064830174866 -0.26190867054 0.61891343047 -0.14996508811 0.25101714418 0.68590202636 -0.060460010377 0.30263173559 
0.37138783457 -0.07924623185 -0.31522652939 0.40774854184 -0.10390077989 -0.10186195852 0.39802380031 -0.025582566236 -0.47431536022 
0.52365438996 -0.099878521105 0.55656007273 0.52106776359 -0.055512575736 0.5550596219 0.35562599574 -0.12248741714 -0.43500569064 
0.33612068641 -0.09761415542 -0.19398429649 0.50963643766 -0.11876806975 0.55394620098 0.62872708528 -0.17139204726 0.31575263658 
0.40964235947 -0.093601999086 0.57333797262 0.40516026765 -0.14934171535 -0.34961806375 0.27906480619 -0.13516863371 -0.34336703077 
0.28798035238 -0.073696651087 -0.24633554254 0.49807662976 -0.14726695962 0.70376226606 0.50212913278 -0.14005273204 0.52459280992 
0.38693830153 -0.082205645972 -0.33393370437 0.35524803344 -0.074147648347 0.58023372503 0.40675659867 -0.1143204991 0.7274424826 
0.37312153149 -0.10928220189 0.80173268005 0.24581024301 -0.085539832085 -0.45462801712 0.27358975769 -0.08006829847 -0.41805729805 
0.31280318493 -0.13050863833 0.65996191311 0.303640582 -0.12253178419 0.70764654501 0.27839588796 -0.16679530686 0.77277047386 
0.17223740166 -0.074665686446 -0.43090941933 0.17495624733 -0.073672583925 -0.42254879686 0.70746689011 0.045158962312 -1.9132117 
0.29108851593 -0.12220779664 0.69828406466 0.26439052695 -0.10603805972 0.78102095362 0.07573778714 -0.18933201089 1.1064185854 
0.51370419163 -0.3056988999 0.83554047742 0.05223491062 -0.15306222256 1.096998314 0.054828754877 -0.23493219982 1.0436667594 
0.28270145585 -0.022832743812 -2.0650369853 0.15370045188 -0.27789376529 0.96768787418 0.14794665548 -0.13978736621 1.0854608955 
0.035755911118 -0.036140900614 0.99444340768 -0.39844103196 -0.18714506981 1.1038705441 -0.031407995788 -0.34086773489 1.0176963659 
-0.41575674386 -0.18688882549 1.197022849 -0.18352231257 -0.063152932679 0.99516949144 -0.41044372152 -0.16652977562 1.0394886774 
-0.42700845367 -0.16778522362 1.146620444 -0.76964989058 -0.29479368036 -1.7377139423 -0.54968462783 -0.16194772648 0.86006206533 
-0.69190984371 -0.15479608532 1.0175392506 -1.1313046443 -0.31810564106 -1.4984827159 -1.0264323039 -0.2123038581 0.81691459351 
-1.2758674442 -0.067210404979 -1.2743279599 -0.92725885885 -0.10270883796 0.95966645613 -0.76874124965 -0.16118824771 0.57757934547 
-1.3879915202 -0.22792803832 -0.85396204458 -1.5276956078 -0.1417956144 -0.99464725747 -1.2282113354 -0.091576001361 0.69584503798 
-1.4272914752 -0.290447848 -1.1100703058 -1.2684818887 -0.19417445157 0.5931686507 -1.5518225001 -0.36060133298 -0.45891479464 
-1.549039969 -0.2530892632 0.20188990444 -1.2956421019 -0.22410815328 0.60146443285 -1.6258019594 -0.15802620747 -0.50813503296 
-1.4844264201 -0.45267522098 0.04159360667 -1.2765664504 -0.25005210524 0.46315226611 -1.5486127458 -0.28004652169 -0.16657645444 
-1.5599501674 -0.26035517361 0.20137701668 
radius 1 100 double
0.03 0.03 0.03 0.03 0.03 0.03 0.03 0.03 0.03 
0.03 0.03 0.03 0.03 0.03 0.03 0.03 0.03 0.03 
0.03 0.03 0.03 0.03 0.03 0.03 0.03 0.03 0.03 
0.03 0.03 0.03 0.03 0.03 0.03 0.03 0.03 0.03 
0.03 0.03 0.03 0.03 0.03 0.03 0.03 0.03 0.03 
0.03 0.03 0.03 0.03 0.03 0.03 0.03 0.03 0.03 
0.03 0.03 0.03 0.03 0.03 0.03 0.03 0.03 0.03 
0.03 0.03 0.03 0.03 0.03 0.03 0.03 0.03 0.03 
0.03 0.03 0.03 0.03 0.03 0.03 0.03 0.03 0.03 
0.03 0.03 0.03 0.03 0.03 0.03 0.03 0.03 0.03 
0.03 0.03 0.03 0.03 0.03 0.03 0.03 0.03 0.03 
0.03 
