# vtk DataFile Version 5.1
Generated by LIGGGHTS
ASCII
DATASET POLYDATA
POINTS 100 float
0.0163523 0.793634 -0.575415 -0.0700651 0.812442 -0.573096 0.0995878 0.797935 -0.576986 
0.0553962 1.29134 -0.56857 0.151187 0.773064 -0.553608 0.214085 0.782831 -0.543684 
-0.182592 0.829419 -0.553916 0.11513 1.28688 -0.564661 0.167959 1.26909 -0.541334 
-0.064952 1.30359 -0.562346 -0.00454264 1.29417 -0.568136 0.272266 1.29958 -0.539222 
-0.265446 0.841184 -0.51794 0.0824923 1.26373 -0.519956 0.225102 1.26581 -0.523333 
-0.115317 1.30024 -0.529899 -0.23354 1.3465 -0.534175 0.295883 0.750951 -0.489004 
0.278709 1.25502 -0.497655 -0.193031 1.31196 -0.506504 -0.296247 1.35512 -0.50607 
0.348772 1.23897 -0.442501 -0.25212 1.32225 -0.481929 -0.352672 1.36219 -0.462893 
-0.371097 0.875123 -0.456795 -0.302683 1.32846 -0.44776 0.448528 0.74732 -0.380749 
-0.424138 0.86756 -0.405029 -0.386667 1.35105 -0.398381 -0.444447 1.37727 -0.377354 
-0.466188 0.883139 -0.347653 0.459712 1.21944 -0.329526 -0.40593 1.34411 -0.341812 
-0.455879 1.36839 -0.3191 0.536893 0.742262 -0.261986 -0.511895 0.894304 -0.294229 
-0.417064 1.35245 -0.27618 -0.474187 1.36458 -0.26208 0.520015 1.18944 -0.195084 
0.574378 0.726842 -0.16566 -0.558335 0.91754 -0.188801 -0.453799 1.36503 -0.205619 
-0.510874 1.38135 -0.195517 0.536175 1.17355 -0.119203 -0.472965 1.37427 -0.149483 
-0.536976 1.39337 -0.138397 -0.554907 0.900452 -0.12735 0.550041 1.16919 -0.0606861 
-0.4925 1.38403 -0.0935625 -0.586326 0.931307 -0.0805477 -0.547047 1.40253 -0.0767452 
0.596425 0.691685 0.0125336 0.546542 1.15275 0.018477 0.592693 1.19107 0.0207365 
-0.540438 1.40196 -0.0171128 0.575035 0.666813 0.0943608 -0.545604 1.41392 0.0431333 
0.536194 1.13807 0.127429 -0.540637 1.42583 0.102206 -0.482166 1.41305 0.0978602 
-0.580757 0.959954 0.119387 0.570879 1.17405 0.161488 -0.467793 1.42199 0.155735 
0.564229 0.69289 0.205873 -0.538189 0.933298 0.160244 0.522892 1.1363 0.188314 
-0.526729 1.43136 0.161942 0.509705 1.13414 0.246836 -0.502869 1.44073 0.216399 
-0.551287 0.471777 0.220526 0.519887 0.657863 0.293384 0.457084 1.11048 0.297379 
0.504715 1.14696 0.305584 -0.46977 1.46399 0.308592 -0.492819 0.978228 0.31301 
0.419118 1.10371 0.358853 -0.409794 1.45504 0.318873 0.364301 0.582361 0.397985 
-0.363703 1.46095 0.356853 -0.443302 1.48331 0.359836 -0.41907 0.974668 0.378146 
-0.465578 1.01664 0.373615 0.408582 1.11665 0.4168 -0.428598 0.499874 0.406631 
0.395804 0.620031 0.434622 0.352984 1.09347 0.429298 0.332971 0.604988 0.480457 
0.338338 1.11874 0.483531 -0.334419 1.00877 0.471984 0.184055 1.05018 0.493483 
-0.242873 1.01945 0.524024 0.122249 1.04413 0.519309 0.28028 1.11157 0.520094 
0.168498 0.578288 0.561829 0.0728494 1.05185 0.559512 0.126865 1.07826 0.569417 
0.184688 1.07535 0.547942 -0.00968521 0.556854 0.585834 -0.0780731 1.04185 0.5704 
-0.0133777 1.04603 0.573837 
VERTICES 101 100
OFFSETS vtktypeint64
0 1 2 3 4 5 6 7 8 
9 10 11 12 13 14 15 16 17 
18 19 20 21 22 23 24 25 26 
27 28 29 30 31 32 33 34 35 
36 37 38 39 40 41 42 43 44 
45 46 47 48 49 50 51 52 53 
54 55 56 57 58 59 60 61 62 
63 64 65 66 67 68 69 70 71 
72 73 74 75 76 77 78 79 80 
81 82 83 84 85 86 87 88 89 
90 91 92 93 94 95 96 97 98 
99 100 
CONNECTIVITY vtktypeint64
0 1 2 3 4 5 6 7 8 
9 10 11 12 13 14 15 16 17 
18 19 20 21 22 23 24 25 26 
27 28 29 30 31 32 33 34 35 
36 37 38 39 40 41 42 43 44 
45 46 47 48 49 50 51 52 53 
54 55 56 57 58 59 60 61 62 
63 64 65 66 67 68 69 70 71 
72 73 74 75 76 77 78 79 80 
81 82 83 84 85 86 87 88 89 
90 91 92 93 94 95 96 97 98 
99 
POINT_DATA 100
FIELD FieldData 4
id 1 100 int
1 19 64 2 80 78 95 58 25 
40 72 56 30 87 82 89 44 38 
92 48 75 15 81 73 35 39 88 
14 77 83 68 65 84 21 37 24 
96 42 57 51 70 17 10 3 5 
18 53 9 69 6 29 61 52 7 
100 49 16 11 28 43 59 12 62 
90 54 97 50 36 79 94 41 76 
20 34 85 27 8 22 47 63 4 
60 91 71 98 33 66 99 67 31 
46 93 23 74 13 26 55 86 45 
32 
type 1 100 int
1 1 1 1 1 1 1 1 1 
1 1 1 1 1 1 1 1 1 
1 1 1 1 1 1 1 1 1 
1 1 1 1 1 1 1 1 1 
1 1 1 1 1 1 1 1 1 
1 1 1 1 1 1 1 1 1 
1 1 1 1 1 1 1 1 1 
1 1 1 1 1 1 1 1 1 
1 1 1 1 1 1 1 1 1 
1 1 1 1 1 1 1 1 1 
1 1 1 1 1 1 1 1 1 
1 
v 3 100 double
2.2474231641 -0.089338202793 0.085342579502 2.2817898073 -0.41024300909 -0.34823461147 2.0135995837 -0.45568843437 0.36380488474 
1.5469501945 -0.29950407887 0.23890026657 1.8754829399 -0.14048275245 0.73480842037 1.9799716092 -0.45714920322 0.80757388844 
1.920093237 -0.4924953463 -0.6895792495 1.5576960529 -0.25017125576 0.20009457377 1.4213204383 -0.24222643599 0.58317194909 
1.577254022 -0.13606015164 -0.47853391584 1.5507906271 -0.19846290268 0.078081107326 1.5112536683 -0.19632986965 0.57676510118 
1.9663331087 -0.16584662799 -0.9736027401 1.6496844162 -0.28345736064 0.25094310673 1.44414038 -0.14972017417 0.51132333539 
1.5829598671 -0.14192352523 -0.46680701175 1.2617499554 0.023484346606 -0.71664051619 1.8216625457 -0.076061783123 1.2089136249 
1.309253844 0.050509383574 0.78063355543 1.1630261487 -0.10110543522 -0.72267805927 1.2429041714 0.087270880611 -0.65687691401 
1.4237501066 -0.35017212657 1.1533521957 1.2070891125 -0.089336565116 -0.78543779999 1.2092089391 -0.20773636902 -0.95799324788 
1.6659357784 -0.043199596201 -1.4808604365 1.1049656835 -0.21486948084 -0.87658690953 1.613769692 -0.15421347009 1.7080537739 
1.3411210829 -0.37262298749 -1.6921026135 0.91683575413 -0.043210519986 -1.104961183 0.84513369821 -0.16006636685 -1.1631402969 
1.4231776005 -0.58566433844 -1.586336345 1.2099431754 -0.27673083049 1.5170642127 0.58459352407 -0.20170657597 -1.2263791729 
0.65788567408 -0.092013570077 -1.1762930552 0.77590593053 -0.15745247133 2.0216181646 1.142630543 -0.015509567672 -1.5000828742 
0.6007558474 -0.19917060225 -1.1690642968 0.60450911186 -0.063126820498 -1.1934547911 0.55134062595 -0.33583040597 1.5327295447 
0.73080913149 -0.72866224614 1.9995531481 0.91860255624 -0.36136942469 -1.9778672341 0.57372039643 -0.21598684681 -1.1649140925 
0.50835296401 -0.1989011247 -1.358105493 0.32677835281 -0.18580360058 1.7191406166 0.36273142805 -0.19407264988 -1.2240918914 
0.44952339393 -0.13554056484 -1.3856101799 0.35121178242 -0.39978613055 -1.9976138303 0.21073230082 -0.30622127355 1.7663938802 
0.072417425434 -0.19882573054 -1.3078380866 0.27127080731 -0.333240359 -2.0213336048 0.073819378371 -0.14031727978 -1.3735361715 
-0.43133251892 -0.23773631865 2.1302287393 -0.064988125812 -0.15984763866 1.8571778235 -0.1459096611 -0.036460998787 1.9832872825 
0.019127392679 -0.19972159039 -1.368326158 -0.37840883622 -0.44062278067 2.299221676 -0.19482161751 -0.20931046166 -1.3616046555 
-0.54376049885 -0.13289573597 1.6013239644 -0.17022952036 -0.23191763969 -1.3570450595 -0.16267722402 -0.21516350493 -1.3156756302 
-0.36718959307 -0.3128191925 -2.0933699877 -0.7178101425 -0.11161865967 1.7660300893 -0.43220251924 -0.22811169468 -1.2411770369 
-0.89412066444 -0.23851469321 1.9781009181 -0.53067512509 -0.35779253579 -1.9444426312 -0.53998271709 -0.18449906015 1.6498920637 
-0.45270301148 -0.24045401669 -1.4019593903 -0.63633678082 -0.23911112488 1.6319926512 -0.60799939975 -0.22219525563 -1.3180820645 
-1.0603358811 -0.16633626919 -2.099958049 -0.84602932289 -0.55055806884 2.0875284017 -0.63016562697 -0.037368179027 1.2905817458 
-0.88511174627 0.1842461405 1.5164538267 -0.66786684065 -0.27355038409 -1.0012451574 -1.2921191028 -0.3905579184 -1.7446266629 
-1.1621989581 -0.34836094251 1.3715598262 -0.7915484185 -0.18131403791 -0.93050356443 -1.7757544486 -0.32307535696 1.4554879751 
-0.89198969023 -0.13568536855 -0.81031975809 -0.79352886643 -0.15114739968 -0.95295999927 -1.1405699342 -0.30926278887 -1.3937388026 
-1.1689612132 -0.57307849612 -1.7609156771 -1.3996171519 -0.22881356678 1.2277402142 -1.6070684443 -0.011464746359 -1.7158127967 
-1.8364444729 -0.1557372602 1.4839666058 -1.4349016304 -0.24761401561 1.2192844105 -1.7405840033 -0.58025259815 1.3052236621 
-1.5480789707 -0.32736712758 1.1830861599 -1.7990683428 -0.2583440753 -1.1759308308 -1.7376028895 -0.3881529054 0.52973693996 
-2.0194355978 -0.29935033133 -0.77475664889 -1.8123388853 -0.24734336103 0.36676318269 -1.6136977513 -0.030107463819 0.77892671423 
-2.1942414809 -0.63454778204 0.92084210032 -1.8837662028 -0.18371674946 0.51220475389 -1.8725071484 -0.17784863039 0.35704733071 
-1.7924074897 -0.52868956076 0.59533965096 -2.331042519 -0.0702523442 -0.22198015031 -2.1176769581 -0.42781039518 -0.20485304717 
-2.1318069112 -0.07261732294 -0.13641318359 
radius 1 100 double
0.03 0.03 0.03 0.03 0.03 0.03 0.03 0.03 0.03 
0.03 0.03 0.03 0.03 0.03 0.03 0.03 0.03 0.03 
0.03 0.03 0.03 0.03 0.03 0.03 0.03 0.03 0.03 
0.03 0.03 0.03 0.03 0.03 0.03 0.03 0.03 0.03 
0.03 0.03 0.03 0.03 0.03 0.03 0.03 0.03 0.03 
0.03 0.03 0.03 0.03 0.03 0.03 0.03 0.03 0.03 
0.03 0.03 0.03 0.03 0.03 0.03 0.03 0.03 0.03 
0.03 0.03 0.03 0.03 0.03 0.03 0.03 0.03 0.03 
0.03 0.03 0.03 0.03 0.03 0.03 0.03 0.03 0.03 
0.03 0.03 0.03 0.03 0.03 0.03 0.03 0.03 0.03 
0.03 0.03 0.03 0.03 0.03 0.03 0.03 0.03 0.03 
0.03 
