# vtk DataFile Version 5.1
Generated by LIGGGHTS
ASCII
DATASET POLYDATA
POINTS 100 float
0.0251005 1.29814 -0.572321 0.216323 1.28327 -0.540385 -0.181059 1.32495 -0.547109 
-0.0151417 1.2789 -0.53114 0.0986785 1.26676 -0.530755 0.163661 1.26053 -0.522774 
-0.252616 1.34797 -0.523569 0.300606 1.24678 -0.47589 0.355671 1.27104 -0.471187 
-0.216024 1.3134 -0.490915 0.388085 1.24497 -0.426564 -0.39478 1.37068 -0.430003 
0.442459 1.2235 -0.351275 -0.373452 1.33888 -0.382434 -0.428125 1.36212 -0.359492 
0.501127 1.21339 -0.269516 -0.443121 1.3559 -0.2995 -0.494893 1.3837 -0.286247 
0.451836 1.68954 -0.228802 0.53335 1.20063 -0.195834 -0.507413 1.38158 -0.217956 
-0.549474 1.42395 -0.223913 0.506537 1.69053 -0.204089 0.457618 1.6771 -0.170195 
-0.580932 0.947029 -0.168042 -0.525611 1.38762 -0.159189 0.528321 1.68169 -0.148824 
0.589518 1.21886 -0.0918397 0.47679 1.66819 -0.113584 0.53203 1.67107 -0.0898856 
-0.576114 0.919999 -0.0945592 -0.552172 1.40677 -0.0729905 0.484886 1.65864 -0.0546094 
-0.58983 1.44085 -0.0340911 0.540306 1.66158 -0.0311844 -0.545748 1.40581 -0.00499616 
0.493158 1.64992 0.00417367 0.5374 1.14523 0.0458523 0.545195 1.65679 0.0332398 
0.5806 1.17695 0.0728554 -0.50265 1.40499 0.0371399 0.464399 1.644 0.0564977 
0.517544 1.64136 0.0842213 -0.554129 1.42552 0.0605428 -0.507465 1.41698 0.0991308 
0.477753 1.62994 0.130992 0.534938 1.64492 0.141659 -0.550655 1.44235 0.132238 
-0.489897 1.42677 0.163536 0.456968 1.63124 0.187306 0.515704 1.63796 0.19857 
0.543268 1.15873 0.225515 0.417352 1.61066 0.227863 0.479915 1.11581 0.264421 
-0.524999 1.46508 0.232346 0.475376 1.61579 0.242323 -0.48109 1.45396 0.277667 
0.380423 1.59912 0.291434 0.425867 1.63695 0.281114 0.482767 1.63201 0.299671 
0.503725 1.15905 0.314848 -0.404076 1.45068 0.305729 0.465212 1.1407 0.360961 
-0.450202 1.47339 0.33981 0.373217 1.59133 0.351703 0.427924 1.60817 0.333715 
-0.351726 1.46108 0.361704 0.316906 1.58268 0.370607 0.414084 1.61441 0.391771 
-0.406245 1.47458 0.382803 0.252477 1.57165 0.402352 0.360215 1.59534 0.410153 
-0.424814 1.00682 0.413871 0.376255 1.11269 0.443825 -0.361849 1.48161 0.422983 
-0.304291 1.47322 0.408091 0.181365 1.55959 0.428867 0.305392 1.57667 0.430557 
-0.372925 1.00366 0.446348 -0.309533 1.49371 0.465868 0.130245 1.54732 0.474646 
0.254348 1.56774 0.462187 0.290797 1.09556 0.504232 -0.164177 1.49571 0.474792 
-0.110391 1.50508 0.499681 0.199796 1.55869 0.485958 -0.227148 1.50759 0.511339 
-0.0630292 1.52355 0.531562 -0.00353131 1.5269 0.524298 0.0975158 1.55371 0.540857 
0.155565 1.56069 0.52738 -0.210844 1.02838 0.538791 -0.145928 1.02378 0.553332 
0.104708 1.06218 0.562108 0.175225 1.07239 0.550652 -0.148207 1.52368 0.547535 
-0.135855 1.07432 0.584795 -0.0995391 1.5492 0.571827 -0.0295461 1.55067 0.573406 
0.0303876 1.55295 0.571432 
VERTICES 101 100
OFFSETS vtktypeint64
0 1 2 3 4 5 6 7 8 
9 10 11 12 13 14 15 16 17 
18 19 20 21 22 23 24 25 26 
27 28 29 30 31 32 33 34 35 
36 37 38 39 40 41 42 43 44 
45 46 47 48 49 50 51 52 53 
54 55 56 57 58 59 60 61 62 
63 64 65 66 67 68 69 70 71 
72 73 74 75 76 77 78 79 80 
81 82 83 84 85 86 87 88 89 
90 91 92 93 94 95 96 97 98 
99 100 
CONNECTIVITY vtktypeint64
0 1 2 3 4 5 6 7 8 
9 10 11 12 13 14 15 16 17 
18 19 20 21 22 23 24 25 26 
27 28 29 30 31 32 33 34 35 
36 37 38 39 40 41 42 43 44 
45 46 47 48 49 50 51 52 53 
54 55 56 57 58 59 60 61 62 
63 64 65 66 67 68 69 70 71 
72 73 74 75 76 77 78 79 80 
81 82 83 84 85 86 87 88 89 
90 91 92 93 94 95 96 97 98 
99 
POINT_DATA 100
FIELD FieldData 4
id 1 100 int
70 68 59 6 53 24 85 14 35 
54 30 4 95 60 67 19 46 45 
8 1 13 32 47 34 94 26 63 
64 62 79 71 55 43 31 50 93 
16 80 28 78 99 100 29 23 91 
69 18 27 33 5 17 38 42 88 
20 10 76 84 96 21 37 12 51 
36 83 73 11 77 39 97 48 75 
86 61 7 52 40 81 74 9 58 
44 49 65 15 89 3 92 25 87 
72 66 98 41 90 57 22 56 82 
2 
type 1 100 int
1 1 1 1 1 1 1 1 1 
1 1 1 1 1 1 1 1 1 
1 1 1 1 1 1 1 1 1 
1 1 1 1 1 1 1 1 1 
1 1 1 1 1 1 1 1 1 
1 1 1 1 1 1 1 1 1 
1 1 1 1 1 1 1 1 1 
1 1 1 1 1 1 1 1 1 
1 1 1 1 1 1 1 1 1 
1 1 1 1 1 1 1 1 1 
1 1 1 1 1 1 1 1 1 
1 
v 3 100 double
2.0003164054 -0.28906181827 0.25831894549 1.7596597709 -0.2470379344 0.67579241076 1.7271912301 -0.39089021138 -0.57608256343 
1.7711395613 -0.089975426524 -0.090155258585 1.7813747315 -0.23229461357 0.10171603155 1.7039583984 -0.23152009821 0.54238158623 
1.6007709204 -0.21790791681 -0.77098964633 1.4529804187 -0.27646050671 1.077204049 1.469389441 -0.22880331357 1.0574966462 
1.6497027616 -0.2246855222 -0.83300019511 1.498603344 -0.22505982842 1.0680105082 1.0477538943 -0.19259867519 -0.89932727159 
1.3362950158 -0.23659182638 1.6354486039 1.2134869996 -0.29383393433 -0.9896515384 0.91064921275 -0.17478592068 -1.4436562283 
1.0019019456 -0.13907041336 1.9180507127 0.66570002794 -0.032482824277 -1.4160126846 0.64062127339 -0.043771661937 -1.3685416093 
0.28854585832 -0.1196007645 0.687832803 0.79590026256 -0.28849581864 1.827267448 0.35949973957 -0.092697923612 -1.3648885561 
0.48754785873 0.012851857536 -1.515319381 0.25781688558 -0.14090431742 0.76528525796 0.21857591251 -0.13334823534 0.71176776535 
0.89237654815 -0.066544425197 -1.9636439463 0.51086506124 -0.24117320154 -1.6970509372 0.022398060115 -0.21692408769 0.84866428851 
0.30892722869 -0.15107099891 1.9156292398 -0.015835717777 -0.14914332176 0.81874335508 -0.028909520719 -0.16001615799 0.86857224838 
0.51627532054 -0.50165704329 -2.1256773496 0.012559233462 -0.095905459122 -1.4354955208 -0.026003188769 -0.14342657704 0.77950697976 
0.1098181584 -0.0056753370704 -1.4081653513 -0.049176475187 -0.16398317091 0.87604965438 0.081949052986 -0.16594899951 -1.7008500227 
-0.12851360199 -0.13232941711 0.79557540035 -0.19374191813 -0.30302731639 1.915308528 -0.14613387009 -0.16356483814 0.83434851664 
-0.30519652471 -0.37029164938 2.1789043591 -0.17921486009 -0.22800161694 -1.3964163828 0.069471144159 -0.22555981456 0.89383578882 
0.045859209432 -0.1326869466 0.94809587258 -0.31642151575 -0.19979120125 -1.6900459697 -0.49351872168 -0.1765974038 -1.3685400574 
-0.1950009957 -0.12785077183 0.84080885229 -0.25804494761 -0.0634163124 1.0352246985 -0.52272870941 -0.055276006666 -1.5261435899 
-0.65154619999 -0.20428963709 -1.2659907637 -0.49902746673 -0.50931848518 0.75446044495 -0.53981021077 -0.26822662648 0.93811736785 
-0.76765027751 -0.34807775847 1.8200485134 -0.57327723215 -0.16758711194 0.88538056408 -0.85668670027 -0.08249626855 1.4148401316 
-0.6175563964 -0.2433798187 -1.4552439162 -0.57305457586 -0.17568807242 0.87332126365 -0.61409518036 -0.22492528607 -1.4571877784 
-0.69094365135 -0.17050561454 0.79307845882 -0.64365021984 -0.19293312257 0.90878283858 -0.63154207552 -0.15342483318 0.88074717696 
-1.229036917 -0.13356395023 1.5976933375 -0.52904713946 -0.16965185539 -0.79265367056 -1.2267060586 -0.23987471672 1.6626125655 
-1.0160988896 -0.1971273713 -1.2251360694 -0.70597543866 -0.17536976308 0.81326453235 -0.67286662527 -0.16925350484 0.92101075898 
-1.0454177007 -0.19550960964 -1.0330054423 -0.74995169821 -0.16768889301 0.69556168185 -0.76406287034 -0.2261196833 0.90265094082 
-1.0579774405 -0.079346066323 -1.1106013766 -0.86831369466 -0.15901781223 0.50670597768 -0.84581899715 -0.12857529038 0.77509625278 
-1.6345680112 0.081761930598 -1.6228627081 -1.7596745623 -0.20657971688 1.4585605706 -1.1843618806 -0.23358674052 -0.88603716726 
-1.1733670951 -0.22671631226 -0.86554295962 -0.9897289777 -0.17740067625 0.4502050438 -0.93026540543 -0.22475173807 0.61166291288 
-1.8890888548 -0.20722269123 -1.2751042962 -1.1975664985 -0.22530186257 -0.89935992957 -1.0450792783 -0.20863427439 0.43571500402 
-1.006663378 -0.13852010821 0.5195500927 -1.9678823262 -0.092255051983 0.83051797961 -0.86299853749 -0.16529582421 -0.24185188663 
-0.96697408175 -0.11812680464 -0.031526393085 -1.0332729779 -0.16576747867 0.46444751081 -1.3499074827 -0.27953525088 -0.6708040045 
-0.87695802818 -0.14425182871 -0.12707634223 -0.93564639406 -0.12909990596 -0.11228153903 -1.0949249419 -0.1035589806 0.31960830957 
-1.079596071 -0.034366167288 0.42115910808 -2.0500623372 -0.33808599054 -0.73267289463 -1.9579031634 -0.24159416754 -0.85020365467 
-2.177292479 -0.51294058553 0.16931270529 -2.0228787082 -0.38878538993 0.7571629058 -1.18782127 -0.0095609856641 -0.31382153301 
-1.9967783631 -0.43395312669 -0.3350461718 -1.0763668328 -0.25576373599 -0.20539995894 -0.94219037077 -0.13165558917 -0.10668219676 
-0.92665305608 -0.38277339586 -0.047379585488 
radius 1 100 double
0.03 0.03 0.03 0.03 0.03 0.03 0.03 0.03 0.03 
0.03 0.03 0.03 0.03 0.03 0.03 0.03 0.03 0.03 
0.03 0.03 0.03 0.03 0.03 0.03 0.03 0.03 0.03 
0.03 0.03 0.03 0.03 0.03 0.03 0.03 0.03 0.03 
0.03 0.03 0.03 0.03 0.03 0.03 0.03 0.03 0.03 
0.03 0.03 0.03 0.03 0.03 0.03 0.03 0.03 0.03 
0.03 0.03 0.03 0.03 0.03 0.03 0.03 0.03 0.03 
0.03 0.03 0.03 0.03 0.03 0.03 0.03 0.03 0.03 
0.03 0.03 0.03 0.03 0.03 0.03 0.03 0.03 0.03 
0.03 0.03 0.03 0.03 0.03 0.03 0.03 0.03 0.03 
0.03 0.03 0.03 0.03 0.03 0.03 0.03 0.03 0.03 
0.03 
