# vtk DataFile Version 5.1
Generated by LIGGGHTS
ASCII
DATASET POLYDATA
POINTS 100 float
0.0567498 1.29887 -0.571893 -0.0599375 1.3253 -0.581504 -0.0284793 1.79472 -0.549454 
0.0301176 1.79206 -0.562063 0.0899161 1.7853 -0.558555 -0.15438 1.82116 -0.547358 
-0.0852631 1.8115 -0.560371 0.0617197 1.76652 -0.507025 0.155529 1.7662 -0.524706 
0.215348 1.77086 -0.524822 -0.0509089 1.83346 -0.509451 0.11774 1.81091 -0.511448 
0.115165 1.75833 -0.481017 -0.154396 1.80088 -0.490889 -0.0923076 1.79028 -0.504671 
-0.0252616 1.78245 -0.49081 0.0237945 1.81332 -0.506317 0.240238 1.7345 -0.442792 
0.302257 1.74396 -0.462854 0.0285786 1.7777 -0.458276 0.199123 1.77086 -0.467058 
-0.268367 1.82514 -0.461269 -0.211504 1.81165 -0.475613 -0.395459 1.38381 -0.437215 
0.0831462 1.77586 -0.433398 0.151607 1.7564 -0.433393 -0.085781 1.79775 -0.445486 
-0.0247885 1.80225 -0.434172 -0.318417 1.83519 -0.428947 -0.144961 1.80885 -0.432174 
0.287575 1.72509 -0.407146 0.347442 1.72858 -0.409267 0.403478 1.72949 -0.38774 
-0.205655 1.81719 -0.416158 -0.458377 1.39654 -0.374034 0.359709 1.71181 -0.350709 
0.244984 1.74102 -0.368003 0.300927 1.7722 -0.372477 -0.295379 1.83278 -0.373611 
-0.35885 1.83896 -0.384396 0.41679 1.71197 -0.331922 0.304858 1.72776 -0.332361 
0.351646 1.76389 -0.322029 0.354826 1.71339 -0.289776 0.462824 1.70547 -0.292729 
0.410428 1.75299 -0.288597 0.408469 1.6963 -0.269034 -0.518896 1.39633 -0.269289 
0.457368 1.6915 -0.234601 0.466549 1.74895 -0.249292 0.406888 1.69689 -0.202623 
0.514006 1.70234 -0.218032 -0.503894 1.37681 -0.199078 -0.546962 1.41441 -0.217356 
0.457096 1.67824 -0.175577 0.515658 1.68208 -0.161581 0.436812 1.68271 -0.119287 
0.494001 1.66926 -0.107113 0.55033 1.68924 -0.11237 0.473992 1.65979 -0.051345 
0.548352 1.67134 -0.0509103 0.504155 1.71104 -0.0592955 -0.587076 1.4375 -0.0551648 
0.482076 1.6479 0.00830407 0.541458 1.65525 0.0128704 -0.567154 1.43261 0.0477059 
0.480906 1.6391 0.0676859 0.539653 1.65008 0.0729904 -0.589569 1.47258 0.089382 
0.472369 1.62837 0.138358 0.530747 1.64112 0.132437 -0.541855 1.44607 0.167832 
0.452959 1.61906 0.194378 0.510918 1.6336 0.188991 -0.474334 1.43721 0.217854 
0.485747 1.62239 0.244516 -0.508214 1.46543 0.25854 0.395472 1.60139 0.286686 
0.453697 1.6136 0.294472 -0.468476 1.46557 0.311961 0.358672 1.58964 0.351874 
0.416746 1.60382 0.342735 -0.33049 1.46911 0.391551 0.334692 1.58203 0.406332 
0.389548 1.60584 0.400719 -0.382953 1.48493 0.415993 0.29008 1.5756 0.448233 
-0.327589 1.49155 0.453601 0.188062 1.5552 0.471364 0.349821 1.60723 0.458634 
-0.265955 1.50239 0.498244 0.0108189 1.52769 0.490678 -0.0615748 1.51333 0.506844 
0.0645448 1.53593 0.516222 0.139452 1.54999 0.510622 0.221008 1.57811 0.515936 
-0.174069 1.51711 0.533784 -0.106612 1.52445 0.544897 0.0108185 1.5391 0.549638 
0.100845 1.56123 0.556747 
VERTICES 101 100
OFFSETS vtktypeint64
0 1 2 3 4 5 6 7 8 
9 10 11 12 13 14 15 16 17 
18 19 20 21 22 23 24 25 26 
27 28 29 30 31 32 33 34 35 
36 37 38 39 40 41 42 43 44 
45 46 47 48 49 50 51 52 53 
54 55 56 57 58 59 60 61 62 
63 64 65 66 67 68 69 70 71 
72 73 74 75 76 77 78 79 80 
81 82 83 84 85 86 87 88 89 
90 91 92 93 94 95 96 97 98 
99 100 
CONNECTIVITY vtktypeint64
0 1 2 3 4 5 6 7 8 
9 10 11 12 13 14 15 16 17 
18 19 20 21 22 23 24 25 26 
27 28 29 30 31 32 33 34 35 
36 37 38 39 40 41 42 43 44 
45 46 47 48 49 50 51 52 53 
54 55 56 57 58 59 60 61 62 
63 64 65 66 67 68 69 70 71 
72 73 74 75 76 77 78 79 80 
81 82 83 84 85 86 87 88 89 
90 91 92 93 94 95 96 97 98 
99 
POINT_DATA 100
FIELD FieldData 4
id 1 100 int
94 71 18 17 10 50 28 73 81 
48 5 21 39 16 29 42 96 40 
44 84 77 63 79 86 83 75 100 
69 47 43 89 72 2 62 74 92 
58 87 34 8 82 25 65 57 56 
15 52 66 9 3 11 7 22 98 
97 76 36 33 20 91 27 12 41 
99 23 90 55 93 49 26 31 61 
13 32 51 46 88 67 45 37 4 
60 78 85 54 38 59 80 70 6 
64 30 19 14 68 53 1 95 35 
24 
type 1 100 int
1 1 1 1 1 1 1 1 1 
1 1 1 1 1 1 1 1 1 
1 1 1 1 1 1 1 1 1 
1 1 1 1 1 1 1 1 1 
1 1 1 1 1 1 1 1 1 
1 1 1 1 1 1 1 1 1 
1 1 1 1 1 1 1 1 1 
1 1 1 1 1 1 1 1 1 
1 1 1 1 1 1 1 1 1 
1 1 1 1 1 1 1 1 1 
1 1 1 1 1 1 1 1 1 
1 
v 3 100 double
2.1782049824 -0.47776172608 0.34197431095 2.1998098499 -0.37654727428 -0.4162519318 0.65007477202 -0.11179424181 -0.071788989551 
0.6713833833 -0.073243388491 -0.001090771477 0.67551199813 -0.22553634824 0.18105490407 0.86781421191 -0.10303660156 -0.2109456804 
0.69893861855 -0.062922406457 -0.19439514434 0.61338752976 -0.10965898899 0.10547694169 0.70596006674 -0.079583946547 0.17314502834 
0.70624582804 -0.086824158192 0.26019656754 0.63728669729 -0.069087763111 -0.10998585962 0.71336191094 -0.10148301152 0.098132574345 
0.62036992334 -0.13229069712 0.083095523103 0.56676411086 -0.094744091904 -0.20757851096 0.55851507816 -0.030271764919 -0.18838783533 
0.60442645877 -0.097345832889 -0.067038111135 0.63563245617 -0.10695074615 0.0084155943806 0.60484924446 -0.089451591027 0.37548505281 
0.71119353044 -0.13110039727 0.50335765701 0.51641970913 -0.088572139419 0.034352238149 0.65263309148 -0.098686185862 0.24597739535 
0.51895870465 0.00053210792364 -0.45089621462 0.58316316472 -0.13392997141 -0.1586866444 1.4411663229 -0.16490467362 -1.1462830044 
0.52339702721 -0.12765232715 0.016113256919 0.57009698489 -0.11445818796 0.12398221392 0.48211257365 -0.10602499485 -0.15500560875 
0.48838613293 -0.085691347934 -0.072532400687 0.52871842159 -0.14111027097 -0.33524999294 0.46978872272 -0.080497270999 -0.19316204414 
0.52224281858 -0.12878271888 0.468435962 0.52648277391 -0.13725965016 0.4957354329 0.49254550386 -0.090112437947 0.58505164565 
0.46623672643 -0.075654129198 -0.15261428303 1.1502984427 -0.33515439782 -1.4037232688 0.48162108571 -0.10903419847 0.56301502602 
0.5589740904 -0.10572965744 0.4980598485 0.63292326051 -0.1333014225 0.43215392055 0.5944116464 -0.10674305841 -0.37267038117 
0.4949913147 -0.1038917871 -0.37071159612 0.48274633271 -0.11472806806 0.58004905568 0.47245705442 -0.080646408536 0.50469392234 
0.48615970477 -0.0966532081 0.54533835873 0.34842201821 -0.084377399785 0.57906372817 0.41062168516 -0.15721721552 0.71037374019 
0.46298089143 -0.097758600073 0.56103764378 0.34587574759 -0.082896829426 0.59135723792 0.87814229206 -0.46439617763 -1.687665957 
0.26097844026 -0.12695733784 0.70673243935 0.5031235838 -0.1945040122 0.59391386849 0.22483219598 -0.096159599184 0.64419778594 
0.25170575566 -0.19028639903 0.77980492218 0.68502494761 -0.26238084375 -1.8772256326 0.75136049051 -0.22895824105 -1.9465384991 
0.16900260759 -0.14052447558 0.71730380159 0.15958401845 -0.15902416828 0.79378947357 0.10150528526 -0.1167945232 0.6910790565 
0.081679279539 -0.12813306906 0.77120180489 0.086543138528 -0.13997414412 0.78068361916 0.22082941508 -0.1798782014 0.81205746242 
0.21178091141 -0.071560255345 0.88683381587 0.159550987 -0.14310411657 0.81613682232 0.14654837425 -0.098176092921 -1.5822802119 
-0.016047868774 -0.12723230269 0.87555123449 -0.031253251368 -0.082542451382 0.93044656217 -0.53981109062 -0.036558949338 -1.7555877494 
-0.0602615987 -0.13516094984 0.8748046176 -0.071049817701 -0.11388109637 0.95023962664 -0.32785673392 -0.087529407508 -1.5974123352 
-0.30332272283 -0.15054563225 0.91664186212 -0.31289746375 -0.13080731848 0.90063509558 -0.70088540868 -0.332413343 -1.7642487951 
-0.44943385958 -0.16356411157 0.86800171173 -0.44023419756 -0.20666791267 0.87580929282 -1.086915482 -0.21024778333 -1.5529906699 
-0.46765642449 -0.2246137712 0.88456331493 -1.0106385328 -0.085247803264 -1.5647592577 -0.63863517627 -0.16365271202 0.78694877871 
-0.63503015567 -0.1788144809 0.78546786654 -1.2970130484 -0.081193726233 -1.3305193806 -0.68946684982 -0.15001317005 0.65988737534 
-0.69862214125 -0.21019747476 0.81166339697 -1.2337267389 -0.26999698112 -1.0013086747 -0.79770994239 -0.16049825683 0.63804099217 
-0.75986846963 -0.10822305415 0.71621140828 -1.3263177415 -0.37808521868 -1.130075592 -1.0204604515 -0.32855191284 0.43478821428 
-1.3957283533 -0.23189222427 -1.0161094158 -0.99310011223 -0.17564871017 0.56726132037 -1.0423543182 -0.2240350311 0.78200911418 
-1.3883920709 -0.20369046101 -0.53843553649 -1.3371682067 -0.27360978906 0.19207800797 -1.4192451325 -0.20956974006 -0.13581872326 
-1.3181550582 -0.21315974191 0.17689362405 -1.4179205108 -0.24148856656 0.25992666484 -1.1826362865 -0.090360317289 0.74886415923 
-1.5051613965 -0.32443722118 -0.74067629424 -1.3840894712 -0.19110179842 -0.099617041149 -1.44793651 -0.08540415373 0.18589961019 
-1.439476378 -0.19785943821 0.275932389 
radius 1 100 double
0.03 0.03 0.03 0.03 0.03 0.03 0.03 0.03 0.03 
0.03 0.03 0.03 0.03 0.03 0.03 0.03 0.03 0.03 
0.03 0.03 0.03 0.03 0.03 0.03 0.03 0.03 0.03 
0.03 0.03 0.03 0.03 0.03 0.03 0.03 0.03 0.03 
0.03 0.03 0.03 0.03 0.03 0.03 0.03 0.03 0.03 
0.03 0.03 0.03 0.03 0.03 0.03 0.03 0.03 0.03 
0.03 0.03 0.03 0.03 0.03 0.03 0.03 0.03 0.03 
0.03 0.03 0.03 0.03 0.03 0.03 0.03 0.03 0.03 
0.03 0.03 0.03 0.03 0.03 0.03 0.03 0.03 0.03 
0.03 0.03 0.03 0.03 0.03 0.03 0.03 0.03 0.03 
0.03 0.03 0.03 0.03 0.03 0.03 0.03 0.03 0.03 
0.03 
