# vtk DataFile Version 5.1
Generated by LIGGGHTS
ASCII
DATASET POLYDATA
POINTS 100 float
0.062911 1.81121 -0.57928 -0.0315166 1.79646 -0.552126 0.107002 1.77989 -0.552872 
-0.169107 1.82509 -0.547215 -0.105586 1.81308 -0.553417 0.0173058 1.83009 -0.542836 
0.0376399 1.77647 -0.525225 0.165917 1.76294 -0.516512 0.229258 1.75935 -0.510494 
-0.0294978 1.86189 -0.514754 -0.209745 1.88509 -0.525012 0.109116 1.75737 -0.496796 
-0.135552 1.7976 -0.499694 -0.0740996 1.78796 -0.508679 -0.231297 1.83105 -0.508681 
0.0282825 1.82181 -0.483575 0.0854019 1.81189 -0.504815 -0.150713 1.86022 -0.502199 
-0.0927759 1.84464 -0.502497 -0.331645 1.89367 -0.499164 -0.266706 1.87786 -0.492309 
0.204244 1.74087 -0.459185 0.324453 1.73934 -0.44554 0.057161 1.77096 -0.468751 
0.146129 1.75547 -0.449546 -0.0962038 1.79804 -0.453598 -0.0255994 1.78504 -0.473464 
0.256637 1.77676 -0.459831 0.392633 1.77919 -0.453483 -0.257452 1.81945 -0.455913 
-0.312396 1.84395 -0.464079 -0.197216 1.84966 -0.462518 -0.0488241 1.84113 -0.461805 
-0.387223 1.89828 -0.455255 0.269366 1.72967 -0.423818 0.376602 1.73501 -0.416186 
0.0159942 1.79603 -0.430813 -0.166994 1.81117 -0.426981 -0.14214 1.86342 -0.442905 
-0.330345 1.89418 -0.436763 -0.271884 1.87296 -0.429296 -0.240963 1.92481 -0.433828 
-0.341812 1.95291 -0.425977 -0.437173 1.96411 -0.431271 0.216414 1.74576 -0.400637 
0.444527 1.75135 -0.380106 -0.340804 1.8375 -0.404943 -0.253819 1.82562 -0.39627 
-0.109742 1.83029 -0.404796 -0.0421391 1.82707 -0.403847 -0.396378 1.86349 -0.406849 
-0.195116 1.88752 -0.415935 -0.437165 1.92324 -0.387344 -0.29622 1.9128 -0.391147 
0.371445 1.71539 -0.35972 -0.306363 1.83645 -0.355442 -0.19795 1.84022 -0.379138 
-0.437374 1.87176 -0.356524 -0.255752 1.87684 -0.365002 -0.37719 1.92481 -0.385292 
-0.207785 1.94228 -0.371255 -0.341899 2.00124 -0.381381 0.444827 1.71023 -0.316114 
0.494999 1.74275 -0.321089 -0.381357 1.88557 -0.340107 -0.320947 1.89296 -0.340216 
-0.20873 1.89549 -0.332708 -0.485087 1.91275 -0.342688 -0.263148 1.92351 -0.325918 
-0.323701 1.95303 -0.34485 -0.434865 2.03615 -0.345249 -0.421937 1.8553 -0.299083 
-0.357382 1.8487 -0.29935 -0.280179 1.87115 -0.301974 -0.431446 1.91556 -0.315956 
0.456008 1.73653 -0.263252 -0.485151 1.88354 -0.29028 -0.38206 1.90024 -0.280054 
-0.396003 1.95814 -0.290387 -0.33816 1.9671 -0.263217 -0.281554 1.96477 -0.286442 
-0.405722 1.86085 -0.241485 -0.480075 1.87033 -0.231933 -0.440197 1.90738 -0.257168 
-0.306116 1.92062 -0.242946 0.508714 1.69386 -0.208821 -0.352069 1.88464 -0.229086 
-0.530061 1.90318 -0.227265 -0.479452 1.9348 -0.22102 -0.377745 1.94099 -0.220437 
-0.499208 1.87916 -0.175757 -0.438741 1.87112 -0.18845 -0.381623 1.89803 -0.169968 
-0.429653 1.93039 -0.185775 -0.54906 1.90917 -0.161124 -0.525556 1.89111 -0.107622 
-0.467194 1.88239 -0.125112 -0.411516 1.90358 -0.117727 -0.460423 1.89569 -0.0669884 
-0.513365 1.8999 -0.0390698 
VERTICES 101 100
OFFSETS vtktypeint64
0 1 2 3 4 5 6 7 8 
9 10 11 12 13 14 15 16 17 
18 19 20 21 22 23 24 25 26 
27 28 29 30 31 32 33 34 35 
36 37 38 39 40 41 42 43 44 
45 46 47 48 49 50 51 52 53 
54 55 56 57 58 59 60 61 62 
63 64 65 66 67 68 69 70 71 
72 73 74 75 76 77 78 79 80 
81 82 83 84 85 86 87 88 89 
90 91 92 93 94 95 96 97 98 
99 100 
CONNECTIVITY vtktypeint64
0 1 2 3 4 5 6 7 8 
9 10 11 12 13 14 15 16 17 
18 19 20 21 22 23 24 25 26 
27 28 29 30 31 32 33 34 35 
36 37 38 39 40 41 42 43 44 
45 46 47 48 49 50 51 52 53 
54 55 56 57 58 59 60 61 62 
63 64 65 66 67 68 69 70 71 
72 73 74 75 76 77 78 79 80 
81 82 83 84 85 86 87 88 89 
90 91 92 93 94 95 96 97 98 
99 
POINT_DATA 100
FIELD FieldData 4
id 1 100 int
95 60 80 32 45 24 35 38 51 
54 31 64 46 4 20 30 19 59 
53 56 7 88 90 1 78 85 68 
37 98 33 9 23 70 92 49 41 
14 93 67 3 12 76 72 44 61 
66 82 97 26 6 40 99 48 11 
22 52 27 81 91 65 13 15 74 
71 77 89 55 10 36 87 2 73 
39 57 21 86 17 84 83 75 25 
42 18 96 58 94 69 28 5 100 
50 29 43 16 79 47 63 62 34 
8 
type 1 100 int
1 1 1 1 1 1 1 1 1 
1 1 1 1 1 1 1 1 1 
1 1 1 1 1 1 1 1 1 
1 1 1 1 1 1 1 1 1 
1 1 1 1 1 1 1 1 1 
1 1 1 1 1 1 1 1 1 
1 1 1 1 1 1 1 1 1 
1 1 1 1 1 1 1 1 1 
1 1 1 1 1 1 1 1 1 
1 1 1 1 1 1 1 1 1 
1 1 1 1 1 1 1 1 1 
1 
v 3 100 double
0.94114255711 -0.098172629929 0.079731305593 0.91406567165 -0.22136388956 0.056809223498 1.0156788108 -0.096034216579 -0.040098464146 
0.72412776102 -0.15058614726 -0.24634974308 0.75647180239 -0.098004784699 -0.17367426435 0.84891949313 -0.15049006389 -0.079456708361 
0.91303758713 -0.086347173581 -0.04688005738 1.0088779442 -0.19621489678 0.47187810951 0.95351834496 -0.19449452435 0.46930080689 
0.39546261018 -0.40861415291 -0.32245940068 0.60401621178 -1.0046742205 -0.72582110373 0.79671784939 -0.15385680724 -0.061782610972 
0.72229558315 -0.12356930951 -0.080446658637 0.62462216515 -0.089238008755 -0.11601125137 0.51214501171 -0.1009128537 -0.24498390899 
0.89780811631 -0.24903342647 -0.056028089172 0.84213511459 -0.13327580369 -0.056586214046 0.65251417427 -0.14105350428 -0.22821492309 
0.67076145322 -0.070081146502 -0.1658628078 0.59557805588 -0.39748788144 0.071972431859 0.3485252884 -0.33280316515 -0.32307155421 
0.88475237982 -0.1818944078 0.44058074446 0.87338004135 -0.22072213308 0.80072943706 0.88609429782 -0.17375800077 -0.085859565594 
0.78795202688 -0.18972025817 -0.056302086037 0.51024378078 -0.097902763097 -0.17153687889 0.63130582487 -0.10868846747 -0.12620060892 
1.3299864407 -0.73932190254 0.49464951077 0.92994203091 -0.44715902426 0.79194659074 0.39952826503 -0.020266630265 -0.2760649562 
0.39511205253 -0.1747877948 -0.23668412861 0.72183904821 -0.098635939742 -0.32546274293 0.64506526525 -0.12555159268 -0.14403993696 
0.31001355366 -0.26302138446 -0.031640071408 0.83470335821 -0.19363059983 0.71332974603 0.83423747206 -0.36414674015 0.84851837021 
0.7184877268 -0.28850271172 -0.11711964984 0.56522238356 -0.078595746685 -0.082266121662 0.63017065428 -0.18069371652 -0.22079996351 
0.40464631617 -0.23680752137 -0.12709158443 0.33907256346 -0.0098301906173 -0.20925973067 0.65905999288 -0.14618960395 -0.35178848609 
-0.22175708681 -0.2074324718 -0.32725750059 0.16544731242 -0.17849430081 -0.21193531373 0.73791250391 -0.1645980758 0.46988745778 
0.84213729496 -0.39322318126 1.3343726607 0.33360549409 -0.079030638225 -0.22198854234 0.27724497667 -0.037748716261 -0.2293648789 
0.57113165928 -0.13220203655 -0.12532838669 0.27350828204 -0.092253423005 -0.096797367452 0.31927488343 -0.23110420123 0.25891294387 
0.45556676292 -0.26533752695 -0.39452999304 -0.021359938179 -0.1493229621 -0.17979626788 0.21065742225 0.008113481586 -0.06533552799 
0.84570247098 -0.17290529931 0.91551215407 0.3985778052 -0.027799143999 -0.1888818849 0.29249254345 -0.13304541567 -0.23669206672 
-0.0021483552614 -0.013340794839 0.048272096802 0.17532844851 -0.067520264691 -0.15076904682 0.016776230248 -0.27809353193 -0.32542365922 
0.7591362381 -0.35866872625 -0.81540177224 -0.054979133111 -0.72923911961 -0.39680633943 0.84602929155 -0.23625365162 1.1448738556 
0.94518232482 -0.35390928282 1.3755212301 0.081285993015 -0.10745563552 -0.16531196031 0.085461726209 -0.018181271317 -0.16822390731 
0.22815228575 -0.067481595462 -0.21503772046 0.14554028239 -0.20716469156 -0.013670331954 0.30884430212 -0.057229849798 -0.09209441679 
-0.12530718349 0.072520785139 -0.11628985379 -0.0033188684103 -0.30748761566 -1.2159977789 -0.012654153555 0.0084477549358 0.056990708642 
0.0052451948516 0.0028946624744 -0.0080202053635 0.15393530894 -0.13041169261 -0.28602763185 0.10198378021 -0.037503742908 0.055889993846 
1.0529880188 -0.86813312642 1.4396216854 0.23525184878 -0.1400493597 0.023655301001 -0.072205660442 -0.09736348814 -0.043079384069 
-0.016787270023 -0.0083843649264 0.17684781152 0.084431840332 -0.13611120676 -0.14667462327 0.32237091629 -0.078050351811 -0.065152489049 
-0.061820695069 0.0011780221911 0.039003811471 -0.0088938166178 0.0056000383693 0.016174795837 -0.012810259792 0.032439187714 0.046553061669 
0.036195811325 -0.19526105369 -0.22046373363 0.48242995288 -0.51880375617 1.8108407959 -0.032007218131 -0.029921641612 0.0098596174195 
-0.010540059621 0.0018836698931 0.044583354129 -0.037045121013 0.05016779986 -2.3502106199e-05 -0.31534521989 -0.053285830643 0.0086032875813 
-0.0041527903995 0.0022590148385 0.015674287395 -0.078085884412 0.018602335884 0.083942696778 -0.26433108131 -0.089592485124 -0.01733564078 
-0.30272298126 0.060824564715 0.17053573539 0.0078289217419 -0.014321814953 0.090918700946 -0.018445678797 0.018903017911 0.11399924796 
-0.051704038953 0.010937278817 0.041015501174 -0.072914010949 0.01945189336 0.12930428344 0.025968213365 0.017970715816 0.028337210451 
0.00016989412666 -0.0026375544833 -0.017648128691 
radius 1 100 double
0.03 0.03 0.03 0.03 0.03 0.03 0.03 0.03 0.03 
0.03 0.03 0.03 0.03 0.03 0.03 0.03 0.03 0.03 
0.03 0.03 0.03 0.03 0.03 0.03 0.03 0.03 0.03 
0.03 0.03 0.03 0.03 0.03 0.03 0.03 0.03 0.03 
0.03 0.03 0.03 0.03 0.03 0.03 0.03 0.03 0.03 
0.03 0.03 0.03 0.03 0.03 0.03 0.03 0.03 0.03 
0.03 0.03 0.03 0.03 0.03 0.03 0.03 0.03 0.03 
0.03 0.03 0.03 0.03 0.03 0.03 0.03 0.03 0.03 
0.03 0.03 0.03 0.03 0.03 0.03 0.03 0.03 0.03 
0.03 0.03 0.03 0.03 0.03 0.03 0.03 0.03 0.03 
0.03 0.03 0.03 0.03 0.03 0.03 0.03 0.03 0.03 
0.03 
