# vtk DataFile Version 5.1
Generated by LIGGGHTS
ASCII
DATASET POLYDATA
POINTS 100 float
0.119742 1.77444 -0.542754 0.0242422 1.7894 -0.553814 -0.140957 1.81639 -0.542807 
-0.0839825 1.81188 -0.561941 0.070048 1.7668 -0.510011 0.177446 1.76387 -0.519673 
0.235945 1.7571 -0.504791 -0.0334416 1.79086 -0.537369 0.128144 1.75455 -0.486774 
-0.0957345 1.79181 -0.50664 -0.0322596 1.78538 -0.477633 0.0233 1.80129 -0.495012 
-0.191476 1.81814 -0.509787 -0.128442 1.83874 -0.488553 -0.0544287 1.83515 -0.502757 
0.197614 1.74198 -0.461177 0.26274 1.73818 -0.450839 0.336749 1.74312 -0.446759 
0.0818904 1.76906 -0.451236 -0.167647 1.80727 -0.455806 -0.104868 1.80011 -0.447936 
0.127816 1.8071 -0.457831 -0.262341 1.82946 -0.477655 -0.327342 1.85763 -0.477267 
-0.196128 1.85905 -0.466149 0.146391 1.75831 -0.428254 0.0112582 1.79234 -0.436921 
0.193296 1.79537 -0.434124 0.254556 1.78369 -0.412605 -0.223686 1.81692 -0.433518 
-0.0499648 1.81018 -0.425947 -0.293286 1.84647 -0.429147 -0.445392 1.41086 -0.407733 
0.271965 1.73091 -0.389999 0.34768 1.7225 -0.390568 0.406301 1.73567 -0.393651 
0.207964 1.74792 -0.400376 0.314789 1.772 -0.398791 -0.342497 1.83552 -0.396614 
-0.139103 1.82751 -0.406994 -0.259498 1.82781 -0.383214 -0.194223 1.83649 -0.385058 
0.381211 1.71136 -0.341753 0.311826 1.72467 -0.34244 0.440526 1.7203 -0.340354 
-0.307238 1.8373 -0.348101 0.356512 1.71298 -0.287091 0.41508 1.70025 -0.289852 
0.481793 1.71407 -0.291727 -0.428016 1.85509 -0.308076 -0.361817 1.84738 -0.313575 
0.43216 1.74805 -0.255716 -0.521023 1.40815 -0.274545 0.394261 1.70222 -0.233611 
0.452685 1.69297 -0.243669 -0.462415 1.86646 -0.24297 -0.403639 1.85922 -0.252916 
0.504377 1.69272 -0.213211 0.449839 1.67996 -0.185166 0.501634 1.67891 -0.154887 
0.443955 1.68035 -0.125277 0.547317 1.68813 -0.117058 0.494928 1.66745 -0.0963762 
0.470193 1.66041 -0.0421688 0.540694 1.66711 -0.0575775 0.516317 1.65413 -0.00431309 
-0.563439 1.42262 0.0218377 0.487996 1.6421 0.0533181 0.546285 1.65627 0.0545825 
0.534043 1.64337 0.111886 -0.55326 1.43314 0.0914236 0.477055 1.63053 0.125574 
0.562446 1.66587 0.159728 -0.548921 1.45848 0.181635 0.462988 1.62166 0.183227 
0.519411 1.63984 0.192499 0.464055 1.64776 0.237245 0.402609 1.60496 0.262756 
-0.529249 1.48767 0.269929 0.457195 1.61359 0.286119 -0.480642 1.46072 0.293284 
-0.425322 1.46058 0.332464 0.430604 1.61127 0.339864 0.293328 1.57868 0.381935 
0.36948 1.59239 0.38911 0.417625 1.62302 0.408024 -0.290168 1.47537 0.416784 
0.323821 1.58619 0.43306 -0.332595 1.49497 0.454405 0.223416 1.55992 0.469193 
0.279742 1.58105 0.473476 -0.22964 1.50743 0.511032 -0.128813 1.50618 0.50389 
-0.0761253 1.52278 0.533072 0.0476351 1.53579 0.524561 0.106782 1.55076 0.529218 
0.197262 1.57493 0.528214 -0.154555 1.53149 0.552238 -0.00183806 1.54403 0.564652 
0.0560015 1.56689 0.575188 
VERTICES 101 100
OFFSETS vtktypeint64
0 1 2 3 4 5 6 7 8 
9 10 11 12 13 14 15 16 17 
18 19 20 21 22 23 24 25 26 
27 28 29 30 31 32 33 34 35 
36 37 38 39 40 41 42 43 44 
45 46 47 48 49 50 51 52 53 
54 55 56 57 58 59 60 61 62 
63 64 65 66 67 68 69 70 71 
72 73 74 75 76 77 78 79 80 
81 82 83 84 85 86 87 88 89 
90 91 92 93 94 95 96 97 98 
99 100 
CONNECTIVITY vtktypeint64
0 1 2 3 4 5 6 7 8 
9 10 11 12 13 14 15 16 17 
18 19 20 21 22 23 24 25 26 
27 28 29 30 31 32 33 34 35 
36 37 38 39 40 41 42 43 44 
45 46 47 48 49 50 51 52 53 
54 55 56 57 58 59 60 61 62 
63 64 65 66 67 68 69 70 71 
72 73 74 75 76 77 78 79 80 
81 82 83 84 85 86 87 88 89 
90 91 92 93 94 95 96 97 98 
99 
POINT_DATA 100
FIELD FieldData 4
id 1 100 int
44 48 17 10 40 72 2 81 89 
73 39 77 18 96 21 92 82 56 
58 42 84 87 28 50 5 25 75 
65 15 29 83 16 94 52 9 7 
57 3 79 69 43 100 97 11 76 
62 36 33 20 47 63 12 71 91 
27 8 34 23 99 93 55 31 26 
13 32 46 86 67 45 60 74 4 
54 66 85 6 59 70 98 53 22 
41 68 30 14 24 90 35 49 95 
19 61 51 37 78 64 1 88 38 
80 
type 1 100 int
1 1 1 1 1 1 1 1 1 
1 1 1 1 1 1 1 1 1 
1 1 1 1 1 1 1 1 1 
1 1 1 1 1 1 1 1 1 
1 1 1 1 1 1 1 1 1 
1 1 1 1 1 1 1 1 1 
1 1 1 1 1 1 1 1 1 
1 1 1 1 1 1 1 1 1 
1 1 1 1 1 1 1 1 1 
1 1 1 1 1 1 1 1 1 
1 1 1 1 1 1 1 1 1 
1 
v 3 100 double
0.61871649396 -0.14250723799 0.18559651239 0.66195239927 -0.089559770209 0.041442182727 0.65759216063 -0.075909579072 -0.16383017107 
0.63722416813 -0.12320491108 -0.071996632721 0.6347367043 -0.15322702493 0.20762372343 0.66116542256 -0.12503348964 0.29872672573 
0.65788695576 -0.14005406932 0.33917497776 0.63328703769 -0.11430401493 -0.056836035753 0.59342367776 -0.11007647946 0.20081481667 
0.55882343127 -0.089566539445 -0.07709462279 0.52221693413 -0.082272852612 -0.05162147924 0.59886904365 -0.13312657671 0.049284689485 
0.58067280592 -0.089089270523 -0.27262779378 0.54201749626 -0.083027115351 -0.13441869264 0.56711032421 -0.096404367647 -0.11973741771 
0.65299707028 -0.103314485 0.34984005686 0.7101063858 -0.078228698761 0.34331881839 0.60771853997 -0.1714387726 0.51754362877 
0.60637886957 -0.078847837982 0.21055767795 0.47029073567 -0.085556345578 -0.22318519845 0.46872606799 -0.071017847919 -0.087755027547 
0.65712256127 -0.13796472388 0.25137867411 0.51842578371 -0.017278126668 -0.40286674315 0.47634223035 -0.12394983982 -0.34303672939 
0.48001177304 -0.091141593522 -0.28106293946 0.68592126291 -0.12705272334 0.22851409747 0.45476301729 -0.10298063251 0.023969183886 
0.68993138756 -0.12158381272 0.35325138024 0.73276516284 -0.12312837353 0.40234133738 0.42188208781 -0.093680454861 -0.33526028858 
0.46880995988 -0.082614175167 -0.070306208732 0.47274123101 -0.21808404695 -0.36227680947 1.3210380494 -0.45623393762 -1.5769714705 
0.68329621247 -0.15717495292 0.35948613147 0.59439939642 -0.1191142054 0.44990217617 0.61947424902 -0.058293793959 0.64242013715 
0.70948609519 -0.11901279624 0.32642650403 0.65192781647 -0.096141204053 0.49192853316 0.47279579937 -0.10850145326 -0.32515162201 
0.4013843636 -0.045939666041 -0.145409039 0.42082273578 -0.078153443397 -0.26720809169 0.33851694737 -0.13040940231 -0.26439812549 
0.4759697932 -0.11043000269 0.56347132884 0.59955051488 -0.12273820503 0.44924889999 0.4816589795 -0.15960124129 0.67202753787 
0.41030180524 -0.078874487676 -0.28077495814 0.43129465411 -0.11508849283 0.54504810563 0.43130984349 -0.13928531759 0.65459052369 
0.35708159849 -0.024824438883 0.62343023443 0.35336422901 -0.075215023518 -0.53801681225 0.36384802847 -0.10342402616 -0.52909247724 
0.32184413487 -0.13485166419 0.6763115729 0.88015971782 -0.70754280221 -1.8824778666 0.43193127901 -0.18625877012 0.65592718576 
0.44646874171 -0.093142822091 0.64913655548 0.24390153666 -0.097042680409 -0.54386355994 0.24626547216 -0.091205137975 -0.52947108997 
0.36251115373 -0.11246187959 0.79231994194 0.36484455363 -0.15010508665 0.63122993185 0.27985740962 -0.14128961685 0.78073551969 
0.21796742714 -0.15244352369 0.56659842534 0.15805963031 -0.11207909212 0.88646639602 0.1137730883 -0.12281390405 0.76412165849 
0.32667985831 -0.22810483391 0.84686853182 -0.021492871322 -0.26224168418 0.92203187921 0.1772033375 -0.12952833814 1.0453680849 
-0.20694757943 -0.37012179826 -1.9927281753 -0.070707174628 -0.15069407012 0.97235589589 -0.078290509235 -0.12436355135 1.0300583596 
-0.20121523956 -0.21488023951 0.98296835891 -0.42024427664 -0.16285883508 -1.9093148199 -0.2110357955 -0.1501687227 1.0023017907 
-0.3587587378 -0.13423254016 1.0330847015 -0.7650904469 -0.23733409441 -1.6742679848 -0.23922637266 -0.15299002787 0.9956546114 
-0.29370164588 -0.073534551398 1.1656693027 -0.35301148473 -0.22591953535 1.027195763 -0.62597178471 -0.20084840309 1.1198348851 
-0.92180491496 -0.15758956902 -1.599285247 -0.62539923867 -0.098414009749 1.0809009178 -0.81417081434 -0.081869831384 -1.816295356 
-1.1743918212 -0.20687217666 -1.1630716037 -0.75606986197 -0.19431857971 1.0117970092 -0.84816441266 -0.16873910228 0.62147242327 
-0.84148575907 -0.11416887303 0.80838982989 -0.89917882833 0.041950418635 0.79611966389 -1.4477231754 -0.24516352499 -0.96649358032 
-0.9211386954 -0.20015184349 0.66916814537 -1.414058726 -0.17390134136 -0.96567238102 -1.1845239727 -0.086640888129 0.84676194772 
-1.1341731164 -0.24999432138 0.45365104985 -1.6287381886 -0.32700317212 -0.78287110529 -1.5018520291 -0.25517574967 -0.56559362854 
-1.5365076969 -0.3439141529 -0.42471615072 -1.4726274715 -0.30367986199 0.045434593595 -1.4632735634 -0.16513467537 0.36330920443 
-1.2459939766 -0.16484496936 0.64769725406 -1.6057298506 -0.21250017433 -0.60941198322 -1.4993265384 -0.19075744016 -0.093677583787 
-1.4430707332 -0.37782976377 0.08659441128 
radius 1 100 double
0.03 0.03 0.03 0.03 0.03 0.03 0.03 0.03 0.03 
0.03 0.03 0.03 0.03 0.03 0.03 0.03 0.03 0.03 
0.03 0.03 0.03 0.03 0.03 0.03 0.03 0.03 0.03 
0.03 0.03 0.03 0.03 0.03 0.03 0.03 0.03 0.03 
0.03 0.03 0.03 0.03 0.03 0.03 0.03 0.03 0.03 
0.03 0.03 0.03 0.03 0.03 0.03 0.03 0.03 0.03 
0.03 0.03 0.03 0.03 0.03 0.03 0.03 0.03 0.03 
0.03 0.03 0.03 0.03 0.03 0.03 0.03 0.03 0.03 
0.03 0.03 0.03 0.03 0.03 0.03 0.03 0.03 0.03 
0.03 0.03 0.03 0.03 0.03 0.03 0.03 0.03 0.03 
0.03 0.03 0.03 0.03 0.03 0.03 0.03 0.03 0.03 
0.03 
