# vtk DataFile Version 5.1
Generated by LIGGGHTS
ASCII
DATASET POLYDATA
POINTS 100 float
-0.127131 1.83381 -0.560531 -0.0800657 1.79926 -0.533324 -0.211838 1.82871 -0.519507 
-0.270989 1.86128 -0.48651 -0.20339 1.89174 -0.515893 -0.344838 1.89984 -0.495839 
-0.411307 2.15759 -0.48091 -0.325173 2.14969 -0.488731 -0.449936 2.20862 -0.464644 
-0.173194 1.80634 -0.467253 -0.23716 1.81552 -0.460972 -0.324349 1.84802 -0.459731 
-0.246576 1.91736 -0.473038 -0.349418 2.06953 -0.450993 -0.399147 2.10424 -0.456266 
-0.288738 2.10936 -0.453715 -0.381492 1.88027 -0.43974 -0.3285 1.90859 -0.438731 
-0.311033 1.99748 -0.422329 -0.369258 2.01481 -0.430523 -0.411664 2.05678 -0.42132 
-0.423598 2.16716 -0.416483 -0.364889 2.15047 -0.438341 -0.309513 2.17478 -0.436525 
-0.488584 2.17675 -0.406123 -0.213862 2.19049 -0.424601 -0.325474 1.83246 -0.40172 
-0.258578 1.82641 -0.396664 -0.200134 1.81698 -0.413949 -0.137152 1.8313 -0.401999 
-0.304023 1.88717 -0.388016 -0.178234 1.878 -0.423461 -0.381898 1.94907 -0.420885 
-0.440008 1.97402 -0.406761 -0.279275 2.04549 -0.402024 -0.453198 2.10899 -0.406771 
-0.320421 2.10307 -0.400493 -0.384034 2.11012 -0.397618 -0.259827 2.14849 -0.41493 
-0.325718 2.21548 -0.393054 -0.391776 1.8541 -0.384746 -0.197832 1.85091 -0.364555 
-0.440575 1.88911 -0.382016 -0.242182 1.89109 -0.370171 -0.481547 1.93093 -0.355666 
-0.28442 1.94419 -0.386183 -0.193237 1.94571 -0.379115 -0.358458 1.99509 -0.374107 
-0.26346 2.00004 -0.361291 -0.429351 2.02828 -0.371011 -0.315296 2.05308 -0.349649 
-0.237943 2.10198 -0.382811 -0.424732 2.14225 -0.359962 -0.373474 2.16702 -0.379305 
-0.383078 1.8481 -0.325069 -0.322379 1.83992 -0.340026 -0.396578 1.91274 -0.345963 
-0.297086 1.91997 -0.3261 -0.409847 1.97075 -0.354917 -0.314113 1.99479 -0.329035 
-0.395134 2.07629 -0.349243 -0.255773 2.05948 -0.340682 -0.455258 2.08502 -0.348245 
-0.3495 2.12023 -0.349189 -0.483048 2.14293 -0.338001 -0.387933 2.16813 -0.318781 
-0.456696 1.88269 -0.317803 -0.366509 1.89832 -0.295334 -0.433686 1.94227 -0.307758 
-0.354045 1.95035 -0.322809 -0.235035 1.94242 -0.30585 -0.428172 2.04207 -0.311961 
-0.364714 2.02997 -0.321541 -0.420163 2.10091 -0.297393 -0.305068 2.10248 -0.311977 
-0.233352 2.11555 -0.309679 -0.301733 2.16602 -0.31696 -0.390188 1.85751 -0.257769 
-0.313653 1.87622 -0.275624 -0.431271 1.90231 -0.262191 -0.282751 1.92629 -0.263562 
-0.321134 1.97162 -0.273136 -0.398695 1.98736 -0.287315 -0.337215 2.03588 -0.266715 
-0.392918 2.05797 -0.265426 -0.283041 2.05214 -0.286677 -0.357832 2.12406 -0.289627 
-0.216985 2.16938 -0.284695 -0.358194 2.18185 -0.267928 -0.285629 2.21472 -0.281084 
-0.472355 1.86865 -0.234279 -0.352542 1.94436 -0.224346 -0.365584 2.10217 -0.234104 
-0.304728 2.09488 -0.246348 -0.423193 2.12718 -0.24292 -0.259118 2.13337 -0.254778 
-0.451733 2.17804 -0.260069 -0.376306 1.88791 -0.206435 -0.338478 2.15656 -0.215103 
-0.27957 2.17349 -0.215064 
VERTICES 101 100
OFFSETS vtktypeint64
0 1 2 3 4 5 6 7 8 
9 10 11 12 13 14 15 16 17 
18 19 20 21 22 23 24 25 26 
27 28 29 30 31 32 33 34 35 
36 37 38 39 40 41 42 43 44 
45 46 47 48 49 50 51 52 53 
54 55 56 57 58 59 60 61 62 
63 64 65 66 67 68 69 70 71 
72 73 74 75 76 77 78 79 80 
81 82 83 84 85 86 87 88 89 
90 91 92 93 94 95 96 97 98 
99 100 
CONNECTIVITY vtktypeint64
0 1 2 3 4 5 6 7 8 
9 10 11 12 13 14 15 16 17 
18 19 20 21 22 23 24 25 26 
27 28 29 30 31 32 33 34 35 
36 37 38 39 40 41 42 43 44 
45 46 47 48 49 50 51 52 53 
54 55 56 57 58 59 60 61 62 
63 64 65 66 67 68 69 70 71 
72 73 74 75 76 77 78 79 80 
81 82 83 84 85 86 87 88 89 
90 91 92 93 94 95 96 97 98 
99 
POINT_DATA 100
FIELD FieldData 4
id 1 100 int
71 94 98 38 51 95 92 44 75 
66 88 80 86 53 7 56 60 37 
24 45 20 48 3 65 10 2 35 
64 90 41 68 74 32 82 30 40 
54 59 72 13 46 49 33 61 73 
19 22 4 78 9 70 31 77 15 
97 85 93 26 52 14 12 6 81 
23 17 83 18 42 28 27 1 96 
91 84 67 99 11 50 39 47 69 
29 79 62 5 55 89 76 87 36 
8 63 100 43 16 57 21 34 25 
58 
type 1 100 int
1 1 1 1 1 1 1 1 1 
1 1 1 1 1 1 1 1 1 
1 1 1 1 1 1 1 1 1 
1 1 1 1 1 1 1 1 1 
1 1 1 1 1 1 1 1 1 
1 1 1 1 1 1 1 1 1 
1 1 1 1 1 1 1 1 1 
1 1 1 1 1 1 1 1 1 
1 1 1 1 1 1 1 1 1 
1 1 1 1 1 1 1 1 1 
1 1 1 1 1 1 1 1 1 
1 
v 3 100 double
1.6651010494 -0.90185314764 -1.5894545596 1.4027663535 0.37772743332 -1.1264208644 1.1313609413 -0.18784063526 -0.49506511726 
0.98190945727 -1.2633667491 -0.93719306817 0.89365340571 -0.90681856035 -1.0832578521 1.0089774752 -1.1107405035 -0.041415239084 
-0.016373005267 -0.38725061609 0.24672911424 -0.14810028833 -0.066751352261 0.020876974233 -0.31204377107 -0.40460803004 1.3690718704 
0.98450554876 -0.25873080901 -1.0402798597 0.88349064158 0.0051305800494 -0.80326681873 0.86273556439 -0.21365743904 -0.52255948739 
1.0914712623 -1.2444841365 -0.90106553979 0.025239605443 -0.84133146672 0.42239432573 0.28532059326 -0.39166597329 0.11947379547 
-0.015131929444 -0.22846561609 0.082330704994 0.67761857909 -0.24531603586 -0.03715886925 0.9590065816 -0.86717837708 -0.01816912644 
0.22703700233 -1.2683029586 0.16167010717 0.21256401459 -1.1535966396 -0.05100343676 0.59352663963 -0.66243283816 -0.089443133043 
1.182875127 0.21875651183 0.11850649713 0.14431992735 -0.30884846722 0.33147616871 0.075962571127 0.074574425453 -0.11236821489 
0.89308731658 -1.5430612869 1.472498458 0.53592318703 0.51593087088 0.78366906931 0.62394604772 -0.093903642158 -0.40742747641 
0.86047374299 -0.38364683787 -0.3431120093 0.88117159668 -0.10275093181 -0.62548144995 0.88826920605 -0.34339612212 -0.6332037463 
0.61609572996 -0.051758372013 -0.25670154907 1.4027151836 -0.49197656259 -0.94626472968 -0.30860884119 -1.1475023522 -0.87165692731 
-0.62471247442 -1.3444067581 -0.35671253171 -0.22724461503 -0.95684474564 0.47606048392 0.96391385538 -0.59177473326 -0.71151702661 
0.47725889154 -0.93434967131 0.59866642638 0.42341805994 -0.64731946534 0.18307945188 0.16851417596 0.17183266056 -0.1719531199 
0.57837303974 -0.2801486621 0.75779598633 0.33971717617 -0.13664479703 -0.05922297173 0.92203895897 -0.68949405005 -0.92032908348 
-0.11767541076 -1.0192306584 -0.32752336849 0.68637247251 -0.77241432045 -0.65623894125 0.4898301311 -0.48111371149 0.91042798522 
0.33189371291 0.14978662494 -0.42717313123 1.4301324434 -0.67914646896 -0.4085887601 -0.18900794182 -1.1867940304 -0.040453832101 
0.48875811797 -1.7476344386 -0.3764424066 0.4675635864 -1.0763888414 -0.28926675256 0.19276014674 -1.5712279349 0.35616737286 
-0.16916893695 -0.19173754415 -0.31992819537 0.36882973825 -0.63975710539 0.13103110385 0.50524827954 -0.51579675636 0.38201747498 
0.070615897649 -0.062704702786 0.03917962376 0.16791159479 -0.057849760839 -0.31282711237 0.021274661721 -0.95678380732 -0.30892227618 
-0.043217387426 -1.3246455314 -0.19678095075 -0.39853992266 -1.1924139346 -0.45863023503 0.35251089229 -0.96077858635 -0.031282014511 
0.22765279463 -0.7588563939 0.058418545505 -0.47469548915 -1.1001704127 -0.88661706517 0.58534782281 -0.65797909069 -0.38676093363 
0.14272195633 -0.32422500693 -0.1503206565 0.25274089084 -0.43051419214 0.1689218391 -0.20760611228 0.035312939419 0.55953457135 
0.19851960408 -0.10987628938 0.39433803814 -0.13604859107 0.022575440395 0.20413220138 -0.7274009781 -1.1605024563 -0.48261914935 
-0.16377242703 -0.406527658 -0.81585538895 0.41099266601 -0.78185448311 -0.55186184892 0.51571897741 -1.1256276596 -0.27283416215 
-0.53540747039 -1.7902990304 -0.12893529779 0.76247098524 -0.48190328328 -0.44914165162 0.22524079562 -0.39110087603 -0.27059892994 
0.072480654098 -0.73967380577 -1.1777403135 -0.16353995864 -1.3810563897 -1.0730962191 -0.082761447563 0.1829600642 0.6213310388 
-0.26059440176 -0.043220896125 0.038791505799 -0.28607006331 -0.011217164012 0.59985107139 -0.085106227874 -0.064881941 -0.031520274666 
-0.80064114499 -0.51604758758 -0.22584024458 -0.6453751167 -1.0629253841 -0.43439339392 0.25317266901 -1.1373781454 -0.42215214055 
0.35395094687 -0.76517470553 -0.32597946178 0.029753855975 -0.68641447483 -0.54164291163 0.069824995866 -0.3119393608 -0.068951906925 
0.074256940313 -0.41905201423 -1.1961920647 0.47581422489 -0.51455915683 0.41594801167 0.24751113857 -0.60841786061 -0.74436764499 
-0.2349818679 0.13603635591 0.85204982527 0.015848313759 -0.99799635607 1.0578533696 0.048495448281 -0.47138274061 -0.13077622243 
-0.078571630243 -0.46245556656 -0.32496855195 0.1704598833 -0.5167451324 -0.2033845818 0.19211949246 -0.75184904862 -0.71636708197 
-0.94274672005 -1.1601007143 -1.1566933238 -0.20555484764 -0.90477706912 1.1210535279 0.33598693162 -0.54676851413 0.43369319379 
0.60965204913 -0.5075768004 -0.65528522549 
radius 1 100 double
0.03 0.03 0.03 0.03 0.03 0.03 0.03 0.03 0.03 
0.03 0.03 0.03 0.03 0.03 0.03 0.03 0.03 0.03 
0.03 0.03 0.03 0.03 0.03 0.03 0.03 0.03 0.03 
0.03 0.03 0.03 0.03 0.03 0.03 0.03 0.03 0.03 
0.03 0.03 0.03 0.03 0.03 0.03 0.03 0.03 0.03 
0.03 0.03 0.03 0.03 0.03 0.03 0.03 0.03 0.03 
0.03 0.03 0.03 0.03 0.03 0.03 0.03 0.03 0.03 
0.03 0.03 0.03 0.03 0.03 0.03 0.03 0.03 0.03 
0.03 0.03 0.03 0.03 0.03 0.03 0.03 0.03 0.03 
0.03 0.03 0.03 0.03 0.03 0.03 0.03 0.03 0.03 
0.03 0.03 0.03 0.03 0.03 0.03 0.03 0.03 0.03 
0.03 
