# vtk DataFile Version 5.1
Generated by LIGGGHTS
ASCII
DATASET POLYDATA
POINTS 100 float
0.0788532 1.30806 -0.580846 0.172345 1.27756 -0.547068 0.0216676 1.2912 -0.567964 
0.229494 1.2961 -0.547681 -0.150693 1.31947 -0.554761 0.133217 1.25437 -0.506807 
-0.26781 1.35567 -0.522194 0.183582 1.76854 -0.530826 0.240882 1.76536 -0.513317 
0.341064 1.26215 -0.470333 -0.146607 1.29432 -0.500423 -0.319117 1.35527 -0.488175 
0.123834 1.75654 -0.496883 0.178425 1.74688 -0.473939 0.236283 1.74014 -0.459068 
0.295899 1.73876 -0.447822 0.353635 1.73754 -0.431496 0.406761 1.2315 -0.394304 
0.256428 1.73397 -0.402889 0.313549 1.72076 -0.390125 0.396253 1.72649 -0.390267 
0.452965 1.22325 -0.340864 -0.460063 1.38809 -0.363379 0.364691 1.70989 -0.342022 
0.308293 1.72691 -0.330672 0.431928 1.71638 -0.342863 -0.490357 1.38733 -0.311542 
0.451264 1.703 -0.287665 0.397311 1.73557 -0.29777 0.342123 1.7182 -0.281886 
-0.525345 1.40211 -0.26483 0.404073 1.69874 -0.250846 0.492323 1.69866 -0.244054 
0.446509 1.7324 -0.224988 0.540304 1.19957 -0.18273 -0.49097 1.37094 -0.226789 
0.456497 1.68222 -0.193655 0.538766 1.71768 -0.211169 -0.531798 1.39524 -0.18712 
0.515294 1.68344 -0.167845 0.399743 1.69944 -0.184597 0.550783 1.18712 -0.12029 
0.466145 1.67216 -0.135292 0.519911 1.67289 -0.108647 -0.533525 1.38933 -0.120371 
-0.579392 1.42643 -0.108201 0.572534 1.18009 -0.0316538 0.477776 1.65918 -0.060488 
0.537818 1.66498 -0.0518942 -0.570018 1.42219 -0.0490959 0.505273 1.65253 -0.00305141 
0.5874 1.18371 0.0568962 0.473819 1.64205 0.046955 0.550998 1.66109 0.0348423 
0.573479 1.16943 0.122914 -0.577379 1.44479 0.0621566 0.472433 1.6324 0.106157 
0.5315 1.64292 0.0886086 -0.547482 1.43742 0.12455 0.459777 1.62364 0.164149 
0.40171 1.63509 0.174473 0.517288 1.63349 0.148349 -0.523793 1.4478 0.199605 
0.417861 1.61083 0.226917 0.498221 1.62718 0.210079 0.467898 1.61341 0.260001 
-0.50407 1.46727 0.269406 0.381141 1.60126 0.273473 -0.455737 1.45674 0.30765 
0.431141 1.60336 0.306705 0.387281 1.64054 0.323891 -0.395957 1.45364 0.319161 
0.378488 1.5913 0.357165 0.338726 1.63607 0.375278 0.442416 1.62435 0.364593 
-0.415069 1.48345 0.386235 -0.352054 1.47562 0.407035 0.339664 1.5838 0.404722 
0.400196 1.61353 0.408493 0.234269 1.56336 0.451724 -0.245493 1.49175 0.471162 
-0.351555 1.50802 0.45753 0.295658 1.58148 0.457661 0.355206 1.61028 0.456272 
0.276261 1.09926 0.513445 -0.299847 1.5109 0.489181 -0.0185866 1.52074 0.50273 
0.0412807 1.53018 0.506934 0.118893 1.54335 0.505729 0.176733 1.55392 0.493699 
0.0731707 1.57543 0.483806 0.239522 1.58151 0.508671 0.195108 1.08449 0.544817 
-0.240582 1.52256 0.522428 -0.181395 1.51499 0.528719 -0.0809818 1.52463 0.538725 
-0.135463 1.53573 0.561276 -0.0265085 1.53913 0.55929 0.0325444 1.54902 0.563226 
0.0920426 1.56026 0.55899 
VERTICES 101 100
OFFSETS vtktypeint64
0 1 2 3 4 5 6 7 8 
9 10 11 12 13 14 15 16 17 
18 19 20 21 22 23 24 25 26 
27 28 29 30 31 32 33 34 35 
36 37 38 39 40 41 42 43 44 
45 46 47 48 49 50 51 52 53 
54 55 56 57 58 59 60 61 62 
63 64 65 66 67 68 69 70 71 
72 73 74 75 76 77 78 79 80 
81 82 83 84 85 86 87 88 89 
90 91 92 93 94 95 96 97 98 
99 100 
CONNECTIVITY vtktypeint64
0 1 2 3 4 5 6 7 8 
9 10 11 12 13 14 15 16 17 
18 19 20 21 22 23 24 25 26 
27 28 29 30 31 32 33 34 35 
36 37 38 39 40 41 42 43 44 
45 46 47 48 49 50 51 52 53 
54 55 56 57 58 59 60 61 62 
63 64 65 66 67 68 69 70 71 
72 73 74 75 76 77 78 79 80 
81 82 83 84 85 86 87 88 89 
90 91 92 93 94 95 96 97 98 
99 
POINT_DATA 100
FIELD FieldData 4
id 1 100 int
37 51 38 61 78 88 64 47 63 
49 80 1 8 34 62 79 50 90 
43 16 28 41 19 29 100 18 95 
17 5 69 35 42 10 96 98 30 
73 21 14 39 84 22 83 75 68 
24 66 77 81 53 48 74 40 44 
86 70 58 89 6 87 25 72 59 
92 2 82 85 57 54 56 65 4 
52 15 3 60 67 11 9 36 13 
45 97 7 71 46 99 91 33 20 
12 76 94 32 26 55 31 93 23 
27 
type 1 100 int
1 1 1 1 1 1 1 1 1 
1 1 1 1 1 1 1 1 1 
1 1 1 1 1 1 1 1 1 
1 1 1 1 1 1 1 1 1 
1 1 1 1 1 1 1 1 1 
1 1 1 1 1 1 1 1 1 
1 1 1 1 1 1 1 1 1 
1 1 1 1 1 1 1 1 1 
1 1 1 1 1 1 1 1 1 
1 1 1 1 1 1 1 1 1 
1 1 1 1 1 1 1 1 1 
1 
v 3 100 double
2.0086007669 -0.19442694336 0.14419998322 1.8098140007 -0.22658018301 0.61864545547 1.9781221429 -0.20117540577 -0.043358004833 
1.8214235239 -0.22292788286 0.67090319139 1.9421197519 -0.16380409716 -0.53819745884 1.7084979476 -0.24331802405 0.5216304769 
1.5816940125 -0.2075657834 -0.69011314904 0.78438108392 -0.033041568393 0.22196113374 0.74497524817 -0.15477075536 0.33061629156 
1.5894000662 -0.24142091552 1.1538500166 1.6775387982 -0.31757595874 -0.58158244046 1.2362126672 -0.20553852876 -1.0540519969 
0.63080911947 -0.079180420113 0.17780434763 0.63305026785 -0.077528120264 0.17322909382 0.56924190965 -0.13295656629 0.32553595589 
0.58442179585 -0.093844877768 0.37087493911 0.56174270517 -0.14403024436 0.46255598162 1.3483359576 -0.17327885368 1.6042729739 
0.54717680267 -0.120387701 0.33523956338 0.52629744574 -0.11823590782 0.43813381653 0.50875848948 -0.044068110098 0.54431391404 
1.344228816 -0.31229775502 1.6702793166 1.1343128713 -0.49936143134 -1.2891992852 0.58810111059 -0.10535314218 0.58409571525 
0.54787989962 -0.13654000004 0.44470101177 0.45784178161 -0.11809447898 0.58723270084 0.98908599457 -0.22928559452 -1.3973463708 
0.36748481012 -0.13663998082 0.62290514278 0.5266300638 -0.14623600934 0.65371162907 0.47575363823 -0.13270001919 0.49525440215 
0.71421180418 -0.42550929706 -1.5393825928 0.4175027861 -0.15704650081 0.67938184241 0.3328812105 -0.06548238679 0.65048927338 
0.34989237599 -0.10547848996 0.75962702637 0.57418369292 -0.51504668616 1.9193419464 0.73810566382 -0.34587786592 -1.4957567229 
0.39869601949 -0.11588482658 0.73766806463 0.29429872451 -0.13187442401 0.7252289315 0.5344297862 -0.17687805667 -1.6980767417 
0.4409199599 -0.12855024562 0.80737719777 0.37851438471 -0.15562029937 0.68175945138 0.58342823216 -0.11588790994 2.1014427498 
0.39956162243 -0.28979363275 0.69530881716 0.34478048046 -0.10117309156 0.80917901497 0.094979516313 -0.16551798476 -1.5155836918 
0.15804028613 -0.11166082516 -1.6626043069 0.2338398582 -0.34709886573 1.985211341 0.063807431036 -0.1041718546 0.72136463766 
0.047015093839 -0.15665514869 0.90478523554 0.12918060008 -0.19474514377 -1.6411231473 -0.20038437853 -0.13442396149 0.74537954833 
-0.27902913475 -0.2007041926 2.2502636483 -0.15180262682 -0.10611576935 0.78177293559 -0.27772500962 -0.26515429684 0.86855964038 
-0.35863828604 -0.76873068394 1.8661153463 -0.37378757495 -0.10856452569 -1.5241549857 -0.18171096103 -0.13661604384 0.77606785683 
-0.12468353958 -0.15548474898 0.97192822531 -0.28523373564 -0.16377932636 -1.5310588294 -0.32462896353 -0.13194606402 0.74556939129 
-0.28008605049 -0.15166039629 0.77530494502 -0.37351186422 -0.16095485389 0.87189313488 -0.72985080562 -0.05113297826 -1.2457509352 
-0.50510359404 -0.15463141824 0.84342630776 -0.46949773257 -0.22685261654 0.87414113284 -0.5303321148 -0.096102919242 0.87064814666 
-0.77201961423 -0.13685510259 -1.2870543654 -0.54810042456 -0.15143964237 0.77058836873 -0.7556804132 -0.30338517765 -1.3444568971 
-0.66877291581 -0.20822058315 0.75837292655 -0.66597155419 -0.22222444945 0.83088027697 -0.79780247517 -0.21047410869 -1.0365919963 
-0.61925230183 -0.17861972252 0.93197033989 -0.89986013783 -0.20791628573 0.59188020037 -0.78194083912 -0.24741007701 0.85916999253 
-0.9108239589 -0.36322556944 -1.2244889477 -0.97734220995 -0.19874873585 -0.74874023052 -0.81201178746 -0.13899975416 0.705837444 
-0.78895408512 -0.042752332828 0.94543653219 -0.93643959879 -0.19063484348 0.6093010828 -0.95818459981 -0.23970399619 -0.58261506634 
-1.0561797741 -0.17209360636 -0.76507340978 -1.0367767168 -0.23402187762 0.730141214 -1.0174804546 -0.19192955505 0.79447172923 
-2.1522131768 -0.15957169846 0.90948502813 -1.0471260236 -0.23626109366 -0.83169232302 -1.341311071 -0.22425990498 -0.13417649691 
-1.3498553136 -0.19511926923 -0.010001986102 -1.2787192659 -0.16340321743 0.27321654064 -1.2448507541 -0.31420274291 0.2794502739 
-1.2207461943 -0.32578725687 -0.088880626224 -1.2151472682 -0.16297573274 0.62619720061 -2.0078534834 -0.76420102184 0.64822589691 
-1.1978255032 -0.27815253368 -0.55562588948 -1.2029984877 -0.15522520889 -0.35672209645 -1.1826221369 -0.26367420089 -0.32361392823 
-1.1781859608 -0.34240791857 -0.27150938585 -1.2658532007 -0.19455191147 -0.13707931238 -1.2630636831 -0.26514170219 0.02686752249 
-1.2539796301 -0.21821278466 0.13314253412 
radius 1 100 double
0.03 0.03 0.03 0.03 0.03 0.03 0.03 0.03 0.03 
0.03 0.03 0.03 0.03 0.03 0.03 0.03 0.03 0.03 
0.03 0.03 0.03 0.03 0.03 0.03 0.03 0.03 0.03 
0.03 0.03 0.03 0.03 0.03 0.03 0.03 0.03 0.03 
0.03 0.03 0.03 0.03 0.03 0.03 0.03 0.03 0.03 
0.03 0.03 0.03 0.03 0.03 0.03 0.03 0.03 0.03 
0.03 0.03 0.03 0.03 0.03 0.03 0.03 0.03 0.03 
0.03 0.03 0.03 0.03 0.03 0.03 0.03 0.03 0.03 
0.03 0.03 0.03 0.03 0.03 0.03 0.03 0.03 0.03 
0.03 0.03 0.03 0.03 0.03 0.03 0.03 0.03 0.03 
0.03 0.03 0.03 0.03 0.03 0.03 0.03 0.03 0.03 
0.03 
