# vtk DataFile Version 5.1
Generated by LIGGGHTS
ASCII
DATASET POLYDATA
POINTS 100 float
0.087838 0.809184 -0.584615 0.203706 0.775408 -0.539635 0.0321932 1.27732 -0.53888 
0.0882245 1.28085 -0.560355 0.18256 1.26986 -0.538089 -0.141914 1.31891 -0.557633 
-0.0308238 1.2956 -0.561427 0.276171 1.26889 -0.512314 -0.197505 1.31699 -0.514664 
-0.0873661 1.29896 -0.540871 0.321223 1.25378 -0.472931 -0.0183016 1.2746 -0.506536 
-0.133096 1.29202 -0.502649 -0.26831 1.33457 -0.497556 -0.272877 1.3173 -0.440188 
-0.328386 1.34171 -0.450063 -0.377496 1.37617 -0.450785 -0.401057 0.872233 -0.428193 
0.413403 1.22257 -0.377712 -0.385402 1.35001 -0.397186 0.47302 1.24344 -0.348737 
-0.443796 1.37548 -0.374205 -0.402436 1.34386 -0.339947 -0.473653 0.872426 -0.310566 
-0.467364 1.37509 -0.318099 0.513983 1.20594 -0.22965 -0.535843 1.41438 -0.251163 
0.561489 1.22637 -0.198948 -0.501067 1.37655 -0.213661 -0.55573 0.920622 -0.204778 
-0.535068 1.39407 -0.158029 -0.546162 0.896271 -0.149364 -0.579618 1.43223 -0.143379 
-0.582703 0.927689 -0.112862 -0.551115 1.40445 -0.0978051 0.55103 1.16631 -0.047118 
0.593463 1.20852 -0.0512775 -0.584073 1.43286 -0.0545241 -0.542177 1.40184 -0.0247035 
0.577301 1.17477 0.0640758 0.578108 1.17484 0.125334 -0.588144 0.970985 0.0894673 
0.469269 1.6289 0.131041 -0.532887 1.42879 0.136457 0.499787 1.12249 0.212973 
-0.477675 1.42485 0.162377 0.438487 1.61845 0.185195 0.504771 1.6283 0.179406 
-0.561182 0.979153 0.195128 0.544739 1.1607 0.223881 0.477157 1.61735 0.231535 
-0.455409 1.43511 0.219894 0.406473 1.60788 0.241179 0.501905 1.14189 0.305173 
-0.479637 1.4516 0.276491 -0.418993 1.44468 0.279166 0.448219 1.60784 0.284274 
-0.526684 0.995086 0.286431 0.359092 1.59563 0.300453 -0.438752 1.46395 0.337617 
-0.378013 1.45577 0.333368 0.340492 1.58698 0.356838 0.41116 1.59814 0.330455 
-0.493179 1.00439 0.341249 0.390492 1.60142 0.386688 0.414717 1.13555 0.424474 
-0.359361 1.46978 0.388657 -0.300421 1.47045 0.400622 -0.243315 1.48618 0.391055 
0.339291 1.58782 0.416822 -0.168286 1.49985 0.434981 0.224843 1.56411 0.435968 
0.286993 1.57187 0.441647 -0.345848 0.998682 0.456084 0.332936 1.10871 0.480207 
-0.339907 1.48754 0.442578 -0.283206 1.49039 0.462049 -0.224922 1.48525 0.448546 
-0.0158395 1.52707 0.457928 0.317934 1.60144 0.483877 0.274427 1.09197 0.511217 
-0.186569 1.50089 0.492553 -0.126389 1.50236 0.494201 -0.0678523 1.51419 0.484968 
0.0410867 1.53008 0.507568 0.0934591 1.5412 0.480473 0.188874 1.55597 0.488483 
0.24616 1.5767 0.491188 -0.281882 1.01618 0.510582 -0.0175753 1.52264 0.517737 
0.137458 1.55329 0.519433 -0.175167 1.0436 0.56071 -0.112804 1.02455 0.556693 
0.158591 1.08809 0.568879 -0.140736 1.52342 0.548785 -0.0804634 1.52879 0.548519 
0.0795346 1.55271 0.547697 -0.0548954 1.03782 0.568445 0.0269437 1.07181 0.589944 
-0.00182759 1.54662 0.570429 
VERTICES 101 100
OFFSETS vtktypeint64
0 1 2 3 4 5 6 7 8 
9 10 11 12 13 14 15 16 17 
18 19 20 21 22 23 24 25 26 
27 28 29 30 31 32 33 34 35 
36 37 38 39 40 41 42 43 44 
45 46 47 48 49 50 51 52 53 
54 55 56 57 58 59 60 61 62 
63 64 65 66 67 68 69 70 71 
72 73 74 75 76 77 78 79 80 
81 82 83 84 85 86 87 88 89 
90 91 92 93 94 95 96 97 98 
99 100 
CONNECTIVITY vtktypeint64
0 1 2 3 4 5 6 7 8 
9 10 11 12 13 14 15 16 17 
18 19 20 21 22 23 24 25 26 
27 28 29 30 31 32 33 34 35 
36 37 38 39 40 41 42 43 44 
45 46 47 48 49 50 51 52 53 
54 55 56 57 58 59 60 61 62 
63 64 65 66 67 68 69 70 71 
72 73 74 75 76 77 78 79 80 
81 82 83 84 85 86 87 88 89 
90 91 92 93 94 95 96 97 98 
99 
POINT_DATA 100
FIELD FieldData 4
id 1 100 int
71 94 45 46 67 55 32 4 31 
26 60 13 93 23 99 91 27 86 
85 33 54 20 76 74 36 59 97 
6 12 66 11 98 7 22 52 70 
53 9 3 24 68 41 8 57 14 
65 34 47 90 35 63 15 62 30 
56 92 79 49 43 82 25 16 50 
61 28 95 2 58 40 100 48 5 
69 51 19 87 72 89 84 29 1 
44 81 77 96 42 17 18 37 83 
10 88 38 64 75 39 21 78 80 
73 
type 1 100 int
1 1 1 1 1 1 1 1 1 
1 1 1 1 1 1 1 1 1 
1 1 1 1 1 1 1 1 1 
1 1 1 1 1 1 1 1 1 
1 1 1 1 1 1 1 1 1 
1 1 1 1 1 1 1 1 1 
1 1 1 1 1 1 1 1 1 
1 1 1 1 1 1 1 1 1 
1 1 1 1 1 1 1 1 1 
1 1 1 1 1 1 1 1 1 
1 1 1 1 1 1 1 1 1 
1 
v 3 100 double
2.1148996061 -0.42543105977 0.19297544128 2.2683164833 -0.25695799996 0.80434083108 1.6618653766 -0.27032689369 0.21799678708 
1.7316221172 -0.29871706838 0.26768943579 1.6801090411 -0.15613232409 0.57964393516 1.654132707 -0.043335903298 -0.31965050388 
1.6532097291 -0.33610716331 -0.069218582052 1.5430976756 -0.36988046263 0.72304161753 1.6321773956 -0.31940818618 -0.59675526602 
1.6072478527 -0.24445198527 -0.25144174156 1.6461362101 0.025898452404 0.88146346193 1.5280517877 -0.22719410912 0.017990899612 
1.4480333771 -0.26423274657 -0.4439624322 1.6740793253 -0.29735107968 -0.7100608655 1.3209726177 -0.2529074694 -0.72353854716 
1.3733601438 -0.31401703673 -0.96021410552 1.2798625364 -0.41657478901 -1.0118869098 1.8456700015 -0.19833470128 -1.3131262011 
1.2881123247 -0.18264670409 1.3749599113 1.2855292074 -0.26368048288 -0.94065146789 1.1815964819 -0.23144142276 1.4301165573 
1.1021633968 -0.35452143973 -1.2010718419 0.96485586029 -0.23252321239 -1.0348197603 1.2550384486 -0.35797286565 -1.813213401 
0.88085520222 -0.21232778303 -1.2312743609 0.63109062874 -0.35497190178 1.6896467356 0.68356852819 -0.36301442841 -1.540491197 
0.66583077178 -0.42519344418 1.7041909382 0.53293071354 -0.2320505439 -1.2274893103 0.89699792264 -0.46661580816 -2.097379935 
0.40869521519 -0.13505388159 -1.3974127487 0.67030552776 -0.20219113798 -1.886872448 0.22679961346 -0.32045888087 -1.4668413946 
0.33375959306 -0.46423746047 -2.26064147 0.19021722612 -0.23242902567 -1.3885510914 0.11356851279 -0.42826750167 1.9135074181 
0.16532324495 -0.49213446938 1.7918716102 0.07713421951 -0.15043092652 -1.4970074021 0.11202574434 -0.18363601939 -1.5716549693 
-0.10147245488 -0.19332525929 1.955751012 -0.29298424355 -0.73490448028 1.855613366 -0.15895664267 -0.37968246164 -2.0626376208 
-0.34882322116 -0.140752897 0.79293584635 -0.35045690989 -0.14193624009 -1.5854049536 -0.69941863292 -0.27660559024 1.8327233204 
-0.57454797769 -0.19462851778 -1.1791072118 -0.47201794403 -0.15708101474 0.80403351204 -0.41440710027 -0.19261422279 0.84043553758 
-0.73074119666 -0.53599283478 -1.9085811314 -0.72156050899 -0.24779119726 1.8230238815 -0.46868612119 -0.15880774175 0.8187874322 
-0.69088240994 -0.16146184103 -1.1061778532 -0.66540215286 -0.16278087334 0.75162112874 -1.16874921 -0.075690519086 1.6807806724 
-0.66299103648 0.0025929015697 -1.195126807 -0.76762987227 -0.1944214931 -0.96747524129 -0.63561914257 -0.19487078619 0.72278060906 
-0.7535871716 -0.010112973442 -1.9336160951 -0.65960848515 -0.16220346064 0.75233705737 -0.9183150663 -0.10483717082 -1.0210456923 
-0.90380923916 -0.12668387241 -0.78601913823 -0.66907860181 -0.16534067397 0.74838244541 -0.63944276445 -0.15754104581 0.72816400869 
-1.3625043043 -0.21056277734 -1.7838612459 -0.67369492108 -0.069266536069 0.71170572177 -1.6538410648 -0.25216550038 1.1565032193 
-0.95723299467 -0.19734709982 -0.73855124699 -0.94640862652 -0.18506262157 -0.70468627723 -0.905011411 -0.20341690386 -0.48813935113 
-0.68539233845 -0.064381694382 0.74260561097 -0.85896223307 -0.098209856472 -0.3624360335 -0.76808370359 -0.14755715299 0.42755769333 
-0.72784750372 -0.13227193063 0.60511705009 -1.8865520393 -0.35151335237 -1.2620297225 -1.6426670827 -0.75333412938 1.1404227825 
-1.0029111112 -0.15792721898 -0.72194018803 -0.98536311267 -0.1973214602 -0.72512134836 -0.89990066355 -0.14529269469 -0.49807879214 
-1.0242407545 -0.1738494547 -0.078689819135 -0.9172144902 -0.14805084286 0.7334691024 -1.8754743006 -0.10734851344 0.90244599479 
-1.0862063738 -0.13952106619 -0.32068336657 -1.0834840344 -0.15897088621 -0.37086529754 -1.0052021181 -0.17495331419 -0.034041781756 
-0.9740031997 -0.13019715083 0.0045247974271 -0.88798744572 -0.15370233799 0.187751464 -1.0480031693 -0.21863465969 0.34655542307 
-1.0499678663 -0.14938735224 0.51893936248 -1.8469930566 0.062066419205 -1.1191355007 -0.99731053111 -0.14081401138 -0.081048938645 
-1.0520265748 -0.080652511205 0.35015178483 -1.8399943625 -0.11210934627 -0.6090017052 -1.9108775626 -0.315755982 -0.26042847327 
-2.0372282634 0.14732679436 0.43569957498 -1.4083446339 -0.19646229831 -0.42659570099 -1.3753046622 -0.29290262225 -0.34456777687 
-1.1392085953 -0.15610943015 0.20195971618 -1.944661799 -0.30288224213 -0.2456655021 -1.8575189573 -0.29276205319 0.25173828 
-1.2063869376 -0.046597024796 -0.074022724231 
radius 1 100 double
0.03 0.03 0.03 0.03 0.03 0.03 0.03 0.03 0.03 
0.03 0.03 0.03 0.03 0.03 0.03 0.03 0.03 0.03 
0.03 0.03 0.03 0.03 0.03 0.03 0.03 0.03 0.03 
0.03 0.03 0.03 0.03 0.03 0.03 0.03 0.03 0.03 
0.03 0.03 0.03 0.03 0.03 0.03 0.03 0.03 0.03 
0.03 0.03 0.03 0.03 0.03 0.03 0.03 0.03 0.03 
0.03 0.03 0.03 0.03 0.03 0.03 0.03 0.03 0.03 
0.03 0.03 0.03 0.03 0.03 0.03 0.03 0.03 0.03 
0.03 0.03 0.03 0.03 0.03 0.03 0.03 0.03 0.03 
0.03 0.03 0.03 0.03 0.03 0.03 0.03 0.03 0.03 
0.03 0.03 0.03 0.03 0.03 0.03 0.03 0.03 0.03 
0.03 
