# vtk DataFile Version 5.1
Generated by LIGGGHTS
ASCII
DATASET POLYDATA
POINTS 100 float
0.010852 0.792036 -0.574476 0.0903786 0.784456 -0.567635 -0.0211332 1.2969 -0.569129 
-0.188451 0.324585 -0.552334 0.199712 0.767083 -0.534626 -0.110419 0.824726 -0.571234 
-0.208382 0.845561 -0.550953 0.0668676 1.28494 -0.563676 0.126814 1.27973 -0.559203 
0.190543 1.27013 -0.53619 -0.0898515 1.31486 -0.567623 -0.148245 1.32913 -0.563077 
0.257605 0.761856 -0.516356 0.140808 1.25415 -0.506677 -0.0629089 1.2854 -0.522715 
0.021252 1.26863 -0.516471 -0.18162 1.31195 -0.515938 -0.121732 1.29703 -0.519534 
-0.237867 1.33618 -0.524503 -0.310619 0.845524 -0.492736 0.229449 1.24436 -0.484024 
0.291947 1.24493 -0.480071 0.352962 0.751898 -0.458287 0.361609 1.24928 -0.445585 
-0.221127 1.30725 -0.470961 -0.28062 1.33252 -0.482382 -0.339609 1.35679 -0.470726 
-0.374667 0.868259 -0.448591 0.258429 1.2262 -0.433818 0.316415 1.22366 -0.415414 
-0.305851 1.32305 -0.428654 -0.396667 1.38062 -0.436453 -0.384902 0.351684 -0.425135 
0.410093 0.724017 -0.389097 0.457226 0.761784 -0.390154 0.393593 1.22576 -0.400292 
-0.359556 1.34197 -0.409387 -0.455448 0.887584 -0.375352 0.439029 1.211 -0.336248 
-0.395799 1.34305 -0.361583 -0.46154 1.37074 -0.314961 0.542351 0.732523 -0.249127 
-0.508941 0.891909 -0.297718 0.491441 1.1968 -0.253816 0.516387 1.18887 -0.199718 
-0.502948 1.37913 -0.224022 0.560157 0.70723 -0.175257 -0.541248 0.899901 -0.206222 
0.533784 1.17834 -0.14295 -0.525597 1.38833 -0.166328 0.587738 1.21984 -0.103192 
0.59032 0.715347 -0.0740292 0.550999 1.1764 -0.0841315 -0.593101 0.955833 -0.0683976 
-0.542057 1.39834 -0.08151 -0.593763 0.437613 -0.0473817 0.560279 1.16622 -0.0184782 
0.581448 0.676775 0.0295976 -0.591916 0.938591 0.00839569 0.517049 1.13946 0.0634508 
0.563213 0.656849 0.0894124 0.565773 1.16407 0.0883545 -0.590184 0.466088 0.0990377 
0.544706 1.14695 0.143649 0.568647 0.662474 0.158136 0.548185 0.665657 0.217298 
-0.561591 0.960128 0.174044 0.527331 0.657212 0.279786 -0.522036 0.953496 0.22487 
-0.530107 0.987395 0.274739 -0.524879 0.499942 0.301891 -0.482937 0.94949 0.27982 
0.496626 1.1488 0.318178 -0.451747 0.961064 0.330272 -0.493216 1.00506 0.342153 
-0.41426 0.481841 0.398894 -0.46616 0.502446 0.373533 -0.42428 0.983095 0.383649 
0.417966 1.11615 0.404133 0.370277 0.605374 0.448609 -0.363969 1.01107 0.458881 
-0.321439 0.506731 0.481517 -0.308338 0.995611 0.475159 0.31618 1.10487 0.493539 
0.237935 0.586621 0.531771 -0.238409 1.01567 0.522215 -0.0563654 1.01552 0.524333 
0.00392235 1.02042 0.521188 0.238759 1.10324 0.537312 -0.226714 0.520573 0.532366 
-0.175488 1.02277 0.543286 -0.113418 1.01868 0.544016 0.175673 1.09022 0.562939 
-0.139738 0.545593 0.574999 -0.0547976 0.540937 0.571564 0.12558 0.589634 0.57932 
-0.00894704 1.0451 0.57434 -0.0703909 1.04725 0.575055 0.0505496 1.06036 0.576408 
0.0738985 1.10917 0.602504 
VERTICES 101 100
OFFSETS vtktypeint64
0 1 2 3 4 5 6 7 8 
9 10 11 12 13 14 15 16 17 
18 19 20 21 22 23 24 25 26 
27 28 29 30 31 32 33 34 35 
36 37 38 39 40 41 42 43 44 
45 46 47 48 49 50 51 52 53 
54 55 56 57 58 59 60 61 62 
63 64 65 66 67 68 69 70 71 
72 73 74 75 76 77 78 79 80 
81 82 83 84 85 86 87 88 89 
90 91 92 93 94 95 96 97 98 
99 100 
CONNECTIVITY vtktypeint64
0 1 2 3 4 5 6 7 8 
9 10 11 12 13 14 15 16 17 
18 19 20 21 22 23 24 25 26 
27 28 29 30 31 32 33 34 35 
36 37 38 39 40 41 42 43 44 
45 46 47 48 49 50 51 52 53 
54 55 56 57 58 59 60 61 62 
63 64 65 66 67 68 69 70 71 
72 73 74 75 76 77 78 79 80 
81 82 83 84 85 86 87 88 89 
90 91 92 93 94 95 96 97 98 
99 
POINT_DATA 100
FIELD FieldData 4
id 1 100 int
6 53 42 94 70 59 54 21 83 
77 10 18 24 84 17 96 69 5 
29 85 73 75 68 44 100 16 28 
60 39 81 43 50 71 14 35 48 
62 4 89 79 34 30 67 40 72 
8 95 46 2 63 58 19 87 45 
47 86 25 1 32 82 64 56 74 
92 80 78 13 38 93 26 66 31 
15 23 55 22 98 99 65 88 33 
41 91 57 37 27 97 11 3 90 
20 76 9 49 61 51 12 36 52 
7 
type 1 100 int
1 1 1 1 1 1 1 1 1 
1 1 1 1 1 1 1 1 1 
1 1 1 1 1 1 1 1 1 
1 1 1 1 1 1 1 1 1 
1 1 1 1 1 1 1 1 1 
1 1 1 1 1 1 1 1 1 
1 1 1 1 1 1 1 1 1 
1 1 1 1 1 1 1 1 1 
1 1 1 1 1 1 1 1 1 
1 1 1 1 1 1 1 1 1 
1 1 1 1 1 1 1 1 1 
1 
v 3 100 double
2.0504062528 -0.12645264015 0.15269230272 2.1467764822 -0.60235145305 0.30323491959 1.5715005879 -0.37897386471 0.087304803158 
2.2041847672 -0.31067744418 -0.97085699609 2.0851772568 -0.38677239681 0.82861642474 2.285878779 -0.19500904808 -0.37572086442 
1.728301908 -0.11611550765 -0.83737143021 1.5474153605 -0.25919572695 0.20880088786 1.5545367243 -0.35626409388 0.2812723335 
1.5092055395 -0.14816015527 0.5275843839 1.4159803954 -0.32990035924 -0.11659893092 1.4540985553 -0.15391139066 -0.25855096455 
2.0629034514 -0.36269251029 0.85612014736 1.4373239315 -0.16991117034 0.39457086392 1.3452520817 -0.29395007767 -0.014473284917 
1.4228565543 -0.15992902899 0.023973169963 1.3051978873 -0.3012276108 -0.36924580777 1.3268525323 -0.2024638712 -0.2242241308 
1.3463626578 -0.27231450396 -0.53166627259 1.8138364803 -0.67897827915 -1.3596339782 1.4360579457 -0.29157519879 0.69418305362 
1.4533604119 -0.18551355742 0.80351385789 1.8191200766 -0.41003166054 1.2617603929 1.1782906093 -0.40387467585 1.0756545599 
1.0943903715 -0.20131399419 -0.54781541949 1.1755676809 -0.15715980515 -0.6812547441 1.1667063402 -0.16526362473 -1.0125751992 
1.6740156684 -0.26591709323 -1.3166814117 1.2958490316 -0.11768580752 0.69141581591 1.1857926267 -0.33114602197 1.1621132117 
0.92236013296 -0.16357001082 -0.77352320656 1.1287799595 0.066169468742 -1.0840499857 1.7812442708 -0.27345776168 -1.6432832612 
1.4301415373 -0.24122444407 1.7834571059 1.4058357614 -0.28141129128 1.8243509906 1.2246097359 -0.048126965559 1.3047584068 
0.86708710364 -0.059638037895 -0.98622740816 1.0215087887 -0.19609548642 -1.539174204 0.86159569785 -0.31796765527 1.4604334969 
0.88791748641 -0.28622736387 -0.96530441186 0.83737883047 -0.11504894745 -1.4996151416 1.1333179662 -0.17449943509 2.0011010549 
1.2271045341 -0.098883008343 -1.7716113772 0.58441081551 -0.36888887988 1.4867126799 0.58374894635 -0.29522412381 1.5046730153 
0.34151359121 -0.068560780663 -1.4595132951 0.9648726878 -0.25645769906 2.0460051889 0.85290979569 -0.34842103216 -2.052210269 
0.30205424655 -0.20876699526 1.6628298599 0.54371973217 -0.23609976991 -1.2578498163 0.31038024704 -0.05384949336 1.675463952 
0.1774457073 -0.51070855288 1.9095857591 0.37983852441 -0.12921643749 1.6376236428 0.27967705697 -0.29292145084 -2.0380700887 
0.29188718868 -0.30190745347 -1.2244192475 0.21422950439 -0.19952840654 -2.288815163 0.13962281693 -0.38115466103 1.8211022337 
-0.29756114465 -0.37266636449 2.3347761324 -0.1840457275 -0.76597848453 -2.0610223842 -0.11053258439 -0.27285575127 1.7991972267 
-0.098687176475 -0.19621925325 2.2285175092 -0.18949501964 -0.263578158 1.944520672 -0.38739491255 -0.021703664894 -2.2246943676 
-0.43962241922 -0.018224019749 1.9103687588 -0.38875309167 0.016530250191 1.8906515519 -0.86213150584 -0.39160612359 1.9008013573 
-0.57121219749 -0.61214597453 -2.0621573453 -0.8750208434 -0.78621725573 2.0374965803 -0.631485207 -0.3550507234 -1.6960714441 
-0.77739283696 -0.29731940084 -1.7630770894 -0.74517214958 -0.019879391528 -2.0478366052 -0.82964906773 -0.14118022205 -1.5826191008 
-0.95952777769 0.1628588033 1.6229838276 -1.1154711048 -0.32377130688 -1.4892920725 -1.0053008192 -0.29822695413 -1.2737907842 
-1.1969594486 -0.25592715971 -1.5609388193 -1.2157359384 -0.77924740418 -1.9720424525 -1.2346236428 -0.19256738509 -1.3652889972 
-1.5568853293 -0.12779034576 1.3651422775 -1.7649935347 -0.21516722705 1.6446157306 -1.5630879766 -0.18151857924 -1.0597382742 
-1.9760848816 -0.12576032856 -1.2966852417 -1.5561342387 -0.13646747607 -1.0196087439 -1.3677266452 -0.18480651773 1.1367341645 
-2.0868206548 -0.19025229173 0.97535074634 -1.5385611269 -0.1687372268 -0.55511382642 -1.7661640479 -0.26441181784 -0.18215064715 
-1.7424225075 -0.19801444264 -0.024267478608 -1.6029233513 -0.26697926511 0.78614005813 -2.2188633526 -0.36240950021 -0.79809908236 
-1.9087570996 -0.49579619185 -0.94157084619 -1.8136879468 -0.30756465107 -0.26435521451 -1.7276324875 -0.40587505517 0.64498681107 
-2.2630595782 -0.65115380336 -0.31083564261 -2.2863751971 -0.33851533054 -0.34666578847 -2.2604810759 -0.12264194408 0.29422711075 
-1.7514930859 -0.076424651892 -0.080098923914 -1.781398009 -0.33261959563 -0.26568422462 -1.7434432656 -0.21617788645 0.27599741215 
-1.8904990701 -0.16175425199 0.21371566558 
radius 1 100 double
0.03 0.03 0.03 0.03 0.03 0.03 0.03 0.03 0.03 
0.03 0.03 0.03 0.03 0.03 0.03 0.03 0.03 0.03 
0.03 0.03 0.03 0.03 0.03 0.03 0.03 0.03 0.03 
0.03 0.03 0.03 0.03 0.03 0.03 0.03 0.03 0.03 
0.03 0.03 0.03 0.03 0.03 0.03 0.03 0.03 0.03 
0.03 0.03 0.03 0.03 0.03 0.03 0.03 0.03 0.03 
0.03 0.03 0.03 0.03 0.03 0.03 0.03 0.03 0.03 
0.03 0.03 0.03 0.03 0.03 0.03 0.03 0.03 0.03 
0.03 0.03 0.03 0.03 0.03 0.03 0.03 0.03 0.03 
0.03 0.03 0.03 0.03 0.03 0.03 0.03 0.03 0.03 
0.03 0.03 0.03 0.03 0.03 0.03 0.03 0.03 0.03 
0.03 
