# vtk DataFile Version 5.1
Generated by LIGGGHTS
ASCII
DATASET POLYDATA
POINTS 100 float
-0.0557797 1.31071 -0.573103 0.117416 1.28137 -0.560515 0.177687 1.29924 -0.56261 
-0.187538 1.33749 -0.552547 -0.0560742 1.28269 -0.520049 0.261477 1.26303 -0.511294 
0.317083 1.28509 -0.505709 -0.250202 1.3507 -0.527534 0.221316 1.76368 -0.516846 
0.217552 1.24143 -0.476595 0.154097 1.75182 -0.48587 0.276779 1.75736 -0.494803 
0.208443 1.74198 -0.462411 0.416556 1.24783 -0.406947 0.263918 1.73492 -0.440668 
0.324807 1.73355 -0.427733 -0.395485 1.36495 -0.424888 0.283617 1.72818 -0.384395 
0.381572 1.72942 -0.40698 -0.437474 1.37301 -0.379429 0.339399 1.71443 -0.36702 
0.419799 1.72142 -0.361226 0.47264 1.21584 -0.312471 -0.475765 1.38463 -0.334676 
0.391774 1.70393 -0.311139 0.453976 1.71026 -0.313139 0.33394 1.71948 -0.307483 
0.511411 1.21178 -0.25042 -0.442035 1.35376 -0.294086 0.472644 1.69835 -0.256975 
0.421563 1.72872 -0.265271 -0.500984 1.38338 -0.271339 0.364665 1.71204 -0.256076 
0.424896 1.69008 -0.216677 0.507059 1.6923 -0.20819 -0.515695 1.38472 -0.19496 
-0.561073 1.42427 -0.189084 0.552919 1.71016 -0.173871 0.46236 1.72593 -0.186499 
0.475588 1.67604 -0.155913 0.418066 1.69186 -0.149517 -0.558942 1.40873 -0.128614 
0.535078 1.68059 -0.124742 0.554896 1.17895 -0.0815575 0.483713 1.66616 -0.0972924 
0.536393 1.66737 -0.0661805 0.576357 1.17848 -0.0140377 0.482544 1.65345 -0.0257368 
-0.589403 1.43958 -0.0156791 0.539904 1.65736 -0.00574507 0.494476 1.64594 0.0326382 
0.571824 1.17005 0.0693008 -0.558116 1.42504 0.0467896 0.534348 1.64577 0.0776344 
0.468364 1.63587 0.0858333 0.462572 1.62637 0.144925 0.522178 1.63545 0.135558 
0.56578 1.16846 0.166393 -0.553992 1.44523 0.134031 0.442587 1.61701 0.200734 
0.500957 1.62696 0.191034 0.539004 1.1526 0.223228 -0.538141 1.46029 0.202157 
0.385016 1.62772 0.21381 -0.491805 1.44409 0.237414 0.389889 1.60287 0.268205 
0.471751 1.61404 0.253124 -0.434982 1.44276 0.264974 0.350066 1.59326 0.312041 
0.438782 1.60687 0.302749 -0.457055 1.46449 0.321229 0.399304 1.59494 0.34632 
-0.399831 1.46718 0.365076 0.351619 1.63023 0.361121 0.344762 1.58498 0.401205 
0.29193 1.62099 0.39998 0.398529 1.61157 0.405086 -0.402953 1.49737 0.416832 
-0.291556 1.48216 0.43649 0.295385 1.57443 0.437663 0.357552 1.61028 0.454084 
-0.349759 1.49457 0.44447 0.185371 1.55365 0.481482 -0.298668 1.51016 0.489085 
-0.0833623 1.5104 0.492602 -0.0250254 1.51925 0.505326 0.0141914 1.55415 0.475417 
0.11382 1.54128 0.502936 0.240962 1.57452 0.490211 0.300709 1.59624 0.493376 
-0.241372 1.50555 0.506602 -0.138581 1.51068 0.516069 0.0552582 1.53277 0.513597 
0.176326 1.57171 0.53798 0.0880615 1.06155 0.568081 0.168651 1.07902 0.558919 
-0.193144 1.5247 0.536715 -0.0901086 1.52935 0.552339 -0.0311777 1.53956 0.561517 
0.0280453 1.54865 0.564671 
VERTICES 101 100
OFFSETS vtktypeint64
0 1 2 3 4 5 6 7 8 
9 10 11 12 13 14 15 16 17 
18 19 20 21 22 23 24 25 26 
27 28 29 30 31 32 33 34 35 
36 37 38 39 40 41 42 43 44 
45 46 47 48 49 50 51 52 53 
54 55 56 57 58 59 60 61 62 
63 64 65 66 67 68 69 70 71 
72 73 74 75 76 77 78 79 80 
81 82 83 84 85 86 87 88 89 
90 91 92 93 94 95 96 97 98 
99 100 
CONNECTIVITY vtktypeint64
0 1 2 3 4 5 6 7 8 
9 10 11 12 13 14 15 16 17 
18 19 20 21 22 23 24 25 26 
27 28 29 30 31 32 33 34 35 
36 37 38 39 40 41 42 43 44 
45 46 47 48 49 50 51 52 53 
54 55 56 57 58 59 60 61 62 
63 64 65 66 67 68 69 70 71 
72 73 74 75 76 77 78 79 80 
81 82 83 84 85 86 87 88 89 
90 91 92 93 94 95 96 97 98 
99 
POINT_DATA 100
FIELD FieldData 4
id 1 100 int
78 38 37 64 80 51 61 1 47 
88 8 63 34 49 62 79 19 43 
50 95 16 28 90 35 29 18 100 
41 30 17 5 14 69 42 10 68 
24 21 96 73 84 53 39 98 83 
75 22 77 70 81 48 66 6 44 
40 58 89 74 59 87 72 86 85 
25 54 92 2 4 57 82 60 56 
67 65 52 15 3 45 13 11 9 
46 36 32 99 91 12 20 97 7 
26 55 33 76 94 71 31 93 23 
27 
type 1 100 int
1 1 1 1 1 1 1 1 1 
1 1 1 1 1 1 1 1 1 
1 1 1 1 1 1 1 1 1 
1 1 1 1 1 1 1 1 1 
1 1 1 1 1 1 1 1 1 
1 1 1 1 1 1 1 1 1 
1 1 1 1 1 1 1 1 1 
1 1 1 1 1 1 1 1 1 
1 1 1 1 1 1 1 1 1 
1 1 1 1 1 1 1 1 1 
1 1 1 1 1 1 1 1 1 
1 
v 3 100 double
1.9152743356 -0.26570672637 -0.28383805807 1.9089424214 -0.30579061595 0.24690285638 1.9213549758 -0.12104828143 0.63555933195 
1.6377083211 -0.50812875572 -0.52108958487 1.8400455697 -0.27810366046 -0.29087151231 1.7653860501 -0.38090092892 0.79163673297 
1.6528920662 -0.13073469565 1.0744704611 1.4193533173 -0.23222812316 -0.70829250852 0.714253494 -0.151132781 0.32011785813 
1.6507578286 -0.29541623756 0.69981481352 0.59112379749 -0.11203447013 0.26856864611 0.67847888162 -0.10512512306 0.44731907886 
0.57809113165 -0.12222563879 0.29660289222 1.3052050851 -0.13241462428 1.5184855834 0.53278638852 -0.10931215695 0.4069238459 
0.58241849593 -0.11788762579 0.44449281102 1.4770878151 -0.27692526472 -1.1432372279 0.54789408457 -0.11388756302 0.39714654172 
0.55715339108 -0.14822071131 0.53410005416 1.1346262376 -0.34066617267 -1.3292077989 0.51502786964 -0.13587372717 0.48989212921 
0.43413646418 -0.14807763738 0.61173310785 1.2594665228 -0.37752675031 1.6979884022 1.1354441574 -0.32327487006 -1.3241780994 
0.47964560136 -0.13192745724 0.64285123498 0.42480097328 -0.13228968086 0.62456170978 0.46965617887 -0.13199995878 0.48523264354 
1.0164759583 -0.22522433747 1.920344503 1.1243658179 -0.27600236015 -1.2891834002 0.47733379031 -0.081934039516 0.62103909264 
0.45382585261 -0.12198116301 0.64973361137 0.69823184124 -0.29700800669 -1.6706195218 0.43744936879 -0.11769930265 0.5237601143 
0.4276663022 -0.17530958252 0.68861450404 0.25381088587 -0.18357420695 0.76937056342 0.47017236962 -0.15820323459 -1.4709859368 
0.55121694076 -0.071221675685 -1.57226565 0.25096924189 -0.18758244682 0.77336149465 0.30218342957 -0.14413204598 0.80791662446 
0.36777652669 -0.13468510862 0.79441774853 0.35601314209 -0.14774940643 0.72036473276 0.3135079269 -0.33863848454 -1.5497548208 
0.31584324356 0.0056177560392 0.90846327415 0.16594053276 -0.42633665686 2.066524495 0.2945421385 -0.1072242019 0.80924039545 
0.30933731315 -0.11965658472 0.88657787787 0.42785763223 -0.23026274683 2.1524090954 0.098682185176 -0.10849036853 0.62756434012 
-0.090046816315 -0.090523464654 -1.5842047571 0.02800236459 -0.1357236198 0.9563869157 -0.24381831151 -0.13144072503 0.6877161946 
-0.12276228791 -0.21466777116 2.0295874452 -0.13096373228 -0.32094872884 -1.5824525059 -0.3743208263 -0.3350234664 0.81326217067 
-0.061405526752 -0.14633001947 0.78836248281 -0.24625923358 -0.12713492314 0.78094568526 -0.25939801161 -0.08145599797 0.88955082603 
-0.89001902187 -0.16186775238 2.035003496 -0.48124153381 -0.056582025747 -1.3678416541 -0.35491978469 -0.13140085295 0.71049233491 
-0.33089762948 -0.1325294457 0.85435237397 -0.80000163603 -0.32910666274 2.0023184201 -0.60823289877 -0.21897035238 -1.3917298254 
-0.36009368479 -0.23454646328 0.7737867749 -0.69424939607 -0.24097177847 -1.4498616357 -0.60826604778 -0.16516059382 0.82739923919 
-0.61819671396 -0.15150560576 0.86583765634 -0.76231922675 -0.17063962976 -1.1395840092 -0.64427079649 -0.16579717645 0.79443056015 
-0.63161571439 -0.15161854508 0.86263381624 -0.77959099624 -0.46232699561 -1.364012086 -0.65769500051 -0.17210279914 0.81725330329 
-0.92758791457 -0.1628844274 -0.92685249839 -0.74904304788 -0.23026387088 0.64173955859 -0.74689542801 -0.082523872716 0.77447540129 
-0.96664929478 -0.40891138511 0.40586928552 -0.99085429184 -0.21844993567 0.73827423886 -0.8678200666 -0.037263513958 -0.99239510017 
-0.8869694128 -0.21214728998 -0.77374887623 -0.95878078038 -0.23529610997 0.61998045142 -0.94609657373 -0.077345761061 0.81960264761 
-0.94987035231 -0.41742682467 -0.9628016274 -1.0258890501 -0.19829710547 0.58096769513 -1.0958575336 -0.17386053924 -0.82025795813 
-1.1459878079 -0.15796961315 -0.4002775218 -1.1864964483 -0.2045533705 -0.025468381916 -1.0684541342 -0.51210351537 -0.26992682094 
-1.2422216239 -0.1977645959 0.12878767439 -1.0828630712 -0.12437939296 0.60838833666 -1.2205009918 -0.21251975717 0.62839523789 
-1.196446765 -0.22461600814 -0.53051317726 -1.2179119213 -0.23734339826 -0.569147456 -1.2639425132 -0.2424687794 0.080710911612 
-1.3138314523 -0.2297386444 0.54489034814 -2.1990298046 -0.32822161041 0.29356540468 -2.1522131768 -0.65007169846 0.90948502813 
-1.198663242 -0.23642211275 -0.52129584942 -1.2977895808 -0.21226125294 -0.17226857403 -1.2958240131 -0.16668027435 -0.065133238283 
-1.2868902585 -0.25282671005 0.069777418499 
radius 1 100 double
0.03 0.03 0.03 0.03 0.03 0.03 0.03 0.03 0.03 
0.03 0.03 0.03 0.03 0.03 0.03 0.03 0.03 0.03 
0.03 0.03 0.03 0.03 0.03 0.03 0.03 0.03 0.03 
0.03 0.03 0.03 0.03 0.03 0.03 0.03 0.03 0.03 
0.03 0.03 0.03 0.03 0.03 0.03 0.03 0.03 0.03 
0.03 0.03 0.03 0.03 0.03 0.03 0.03 0.03 0.03 
0.03 0.03 0.03 0.03 0.03 0.03 0.03 0.03 0.03 
0.03 0.03 0.03 0.03 0.03 0.03 0.03 0.03 0.03 
0.03 0.03 0.03 0.03 0.03 0.03 0.03 0.03 0.03 
0.03 0.03 0.03 0.03 0.03 0.03 0.03 0.03 0.03 
0.03 0.03 0.03 0.03 0.03 0.03 0.03 0.03 0.03 
0.03 
