# vtk DataFile Version 5.1
Generated by LIGGGHTS
ASCII
DATASET POLYDATA
POINTS 94 float
-0.712678 -0.673709 -0.738124 -0.723592 -0.596274 -0.669308 0.0241195 0.305136 -0.585486 
-0.0816991 0.817427 -0.575694 -0.0209919 0.820553 -0.592331 0.0592988 0.819001 -0.59258 
-0.684383 -0.451547 -0.540532 0.102743 0.268065 -0.554838 0.250089 0.295218 -0.547892 
-0.246631 0.375151 -0.54957 0.15271 0.767866 -0.550055 -0.0393211 0.785842 -0.546952 
0.0186741 0.785211 -0.563712 0.0948708 0.778088 -0.563336 0.212536 0.775058 -0.539164 
-0.17021 0.834472 -0.564003 0.194153 0.261529 -0.536737 -0.305488 0.359057 -0.512523 
-0.114363 0.793449 -0.527606 -0.218453 0.826233 -0.529196 -0.272635 0.830327 -0.495026 
-0.326982 0.854481 -0.485873 0.312116 0.744084 -0.472511 0.391331 0.254441 -0.440943 
-0.415875 0.367343 -0.417955 0.370595 0.731998 -0.429643 -0.346636 0.838494 -0.431482 
-0.399554 0.866296 -0.425832 -0.652829 -0.306495 -0.397345 0.439419 0.243506 -0.389955 
0.320396 0.712158 -0.399157 0.411208 0.719158 -0.383883 -0.443634 0.876446 -0.384564 
-0.646355 -0.271909 -0.325673 -0.43957 0.35254 -0.338268 -0.480506 0.396376 -0.342632 
0.459799 0.729859 -0.350221 -0.478932 0.882835 -0.336023 0.488041 0.711739 -0.300079 
0.49838 0.201976 -0.274771 -0.624548 -0.195995 -0.242829 -0.551671 0.428191 -0.235305 
0.539197 0.206819 -0.217319 -0.527396 0.383623 -0.20277 0.528842 0.701169 -0.214618 
-0.616504 -0.128275 -0.154735 0.543037 0.682396 -0.150715 0.588189 0.209484 -0.0841563 
-0.563656 0.404633 -0.0896164 0.55496 0.668199 -0.0638436 0.594799 0.18495 0.0127936 
-0.566411 0.41162 -0.0119635 0.56617 0.664368 0.0075663 -0.598274 -0.0574329 0.035805 
-0.591838 0.447562 0.05768 0.575898 0.668936 0.0666303 0.587003 0.187524 0.0949553 
-0.557627 0.434191 0.117309 0.580087 0.671324 0.132908 0.557669 0.153951 0.18326 
-0.559256 0.464383 0.19408 0.545828 0.64986 0.192656 -0.512408 0.445782 0.235756 
0.535695 0.654807 0.252664 -0.523981 -0.0322022 0.263938 0.520906 0.142942 0.27566 
0.486165 0.624125 0.29644 -0.485448 0.484368 0.333923 -0.442326 -0.0237329 0.367715 
0.460493 0.127837 0.360877 -0.428046 0.462695 0.3636 0.468856 0.632692 0.354415 
-0.388852 0.472949 0.413738 0.433407 0.627052 0.403078 0.408843 0.108977 0.417479 
-0.362563 0.00958916 0.465189 -0.338425 0.485682 0.454722 -0.277113 -0.00528878 0.504836 
0.311796 0.0924359 0.498773 -0.295315 0.505118 0.49642 0.234368 0.0760532 0.527506 
-0.236142 0.512727 0.525391 0.239718 0.576952 0.518675 -0.179669 0.0257043 0.553378 
0.185534 0.0902231 0.560786 -0.174181 0.514706 0.542493 -0.238761 0.565261 0.556098 
0.176415 0.586715 0.562372 -0.0458912 0.0307257 0.572828 0.0362909 0.0631371 0.589364 
-0.107124 0.543294 0.575658 -0.0426123 0.545814 0.577034 0.0866403 0.564219 0.570434 
0.0855999 0.110428 0.603207 
VERTICES 95 94
OFFSETS vtktypeint64
0 1 2 3 4 5 6 7 8 
9 10 11 12 13 14 15 16 17 
18 19 20 21 22 23 24 25 26 
27 28 29 30 31 32 33 34 35 
36 37 38 39 40 41 42 43 44 
45 46 47 48 49 50 51 52 53 
54 55 56 57 58 59 60 61 62 
63 64 65 66 67 68 69 70 71 
72 73 74 75 76 77 78 79 80 
81 82 83 84 85 86 87 88 89 
90 91 92 93 94 
CONNECTIVITY vtktypeint64
0 1 2 3 4 5 6 7 8 
9 10 11 12 13 14 15 16 17 
18 19 20 21 22 23 24 25 26 
27 28 29 30 31 32 33 34 35 
36 37 38 39 40 41 42 43 44 
45 46 47 48 49 50 51 52 53 
54 55 56 57 58 59 60 61 62 
63 64 65 66 67 68 69 70 71 
72 73 74 75 76 77 78 79 80 
81 82 83 84 85 86 87 88 89 
90 91 92 93 
POINT_DATA 94
FIELD FieldData 4
id 1 94 int
22 41 93 16 29 18 90 13 45 
26 17 100 69 5 10 50 32 31 
28 62 43 34 96 46 23 21 63 
79 49 67 42 84 8 61 55 33 
83 47 77 4 51 91 60 99 39 
37 73 85 27 75 54 20 81 88 
76 44 59 97 48 6 11 89 36 
40 38 53 72 12 78 70 52 2 
7 58 24 80 3 64 68 57 14 
9 87 1 30 15 65 25 19 95 
92 56 82 35 
type 1 94 int
1 1 1 1 1 1 1 1 1 
1 1 1 1 1 1 1 1 1 
1 1 1 1 1 1 1 1 1 
1 1 1 1 1 1 1 1 1 
1 1 1 1 1 1 1 1 1 
1 1 1 1 1 1 1 1 1 
1 1 1 1 1 1 1 1 1 
1 1 1 1 1 1 1 1 1 
1 1 1 1 1 1 1 1 1 
1 1 1 1 1 1 1 1 1 
1 1 1 1 
v 3 94 double
-0.33436420595 -3.4854059984 -2.2802947797 -0.43951777773 -3.2253208445 -2.2808416539 2.3460245211 -0.085950986729 0.28856226119 
1.8439216104 -0.24308825952 -0.2838199241 1.9221931974 -0.32127355545 -0.24786853397 2.0554641065 -0.15662050637 0.19208905488 
-0.31999506672 -2.7928893382 -2.1654213295 2.3299331023 -0.37558149372 0.29802704253 1.9876670682 -0.32916440442 0.85856567944 
1.9763196267 0.016503214958 -1.0190474894 1.8051674516 -0.09238396271 0.64306749665 1.7948681893 -0.27486395297 -0.27311909507 
1.8683567072 -0.15894102969 -0.065822381454 1.8604288536 -0.38852611819 0.30438402655 1.824378078 -0.27724915011 0.7084799694 
1.8274655506 -0.33543910898 -0.74707087551 2.0069074586 -0.41194044336 0.84903983414 1.9518306206 0.12625640949 -0.91236229994 
1.6693448765 -0.20816840731 -0.35024445827 1.8353309441 -0.32817330761 -0.74551222392 1.6321784088 -0.20084310781 -0.99290452153 
1.5001591411 -0.40150912521 -1.0828576387 1.801726551 -0.29138302542 1.3171157053 1.9348353547 -0.44131775899 1.3546810894 
1.6634311033 -0.25988950875 -1.163219032 1.560638092 -0.37783558549 1.2540843698 1.4214421473 -0.29236221881 -1.0840458757 
1.4535310055 -0.24688962243 -1.0662647347 -0.37649406158 -2.1415957678 -2.2350747542 1.5397925761 -0.12927317363 1.7286411026 
1.4918719817 -0.29864845579 1.1323672083 1.3018688952 -0.20195508487 1.5320246068 1.1063121789 -0.31204803236 -1.4260767344 
-0.32262776168 -2.1214132881 -2.2803691225 1.2573301549 -0.25225079028 -1.8939304154 1.3462882268 -0.18928604267 -1.7310005366 
1.2444771749 -0.37235857522 1.6757230993 0.91478914201 -0.056156627171 -1.5118814495 1.2006813029 -0.37488394736 1.6346837573 
1.0791942512 -0.081435631395 2.0752151388 -0.23381679728 -1.778083371 -2.2168227063 0.7711547823 -0.302398611 -2.080813228 
1.1129574989 -0.32552298411 2.1048873256 0.77727082599 -0.24839910971 -2.1407549614 0.93081930907 -0.24236425681 1.9234397842 
-0.21822229939 -1.4449695306 -2.2187515616 0.44114181375 -0.063882242078 2.0334308814 0.18498884402 -0.39053212959 2.0933846558 
0.16352701484 -0.24741256898 -2.2099954154 0.34825511073 -0.28068284947 2.1000204103 0.071015174153 0.040934132881 2.2749081758 
0.060973703614 -0.11851373823 -2.1240421632 -0.018743336244 -0.060388984293 2.1237202774 -0.458471509 -0.23549480092 -2.3185101641 
-0.43376518852 -0.18726421344 -2.0656333904 -0.041038820416 -0.17414709552 2.1461440059 -0.2951835674 -0.31564044827 2.1907206525 
-0.47874076289 -0.19476865156 -2.1535386798 -0.22511188363 -0.21705879815 2.0405313176 -0.83560807767 -0.34637618601 2.1871804963 
-0.89856394036 -0.31023262492 -2.0453565562 -0.44992342602 -0.17626670779 1.8941935559 -0.92367616112 -0.34442048471 -1.9180408229 
-0.70793467571 -0.15595044115 1.8913167394 -1.0539724283 -0.16298983297 -2.0608956107 -0.89936029329 -0.73896028322 1.8688202226 
-1.0022745625 -0.13334880721 1.7732225153 -1.2594320354 -0.22889729728 -1.5117676962 -1.4702787984 -0.24325377461 -1.7980542736 
-1.5195149332 -0.55838376384 1.740182051 -1.2755510379 -0.21579508785 -1.5330477491 -1.2652493898 -0.32168530208 1.6610412372 
-1.5037132687 -0.41784974877 -1.2568944585 -1.180329164 -0.194826873 1.7280393628 -1.6905909326 -0.13598104909 1.6202936512 
-1.9107415511 -0.34597437561 -1.318211531 -1.4894629433 -0.3712318601 -1.2733336949 -1.9961595328 -0.13087330524 -1.2758652045 
-1.8112014865 -0.3339478273 1.4117031437 -1.5649533169 -0.18791574805 -1.1703412979 -2.0465676242 -0.62118580883 0.61869274557 
-1.7123823612 -0.19797326774 -0.63137393475 -1.7377474733 -0.037413112005 1.2693965644 -2.2301745878 -0.11218343037 -0.79533190906 
-2.0054502251 -0.69884462283 0.71266404423 -1.9317165757 -0.32121897377 -0.80841761773 -1.85886926 -0.1668559616 -0.76817188887 
-2.2003102689 -0.54351234263 0.95822786692 -2.2591005188 -0.31775652748 -0.20664102962 -2.2150376677 -0.215790927 0.37748674609 
-1.968725926 -0.37535880256 -0.26375991788 -1.9522707071 -0.3343699051 -0.24384238229 -2.2097374663 -0.38243270388 0.22843384378 
-2.0109014907 -0.044753482393 0.2763665618 
radius 1 94 double
0.03 0.03 0.03 0.03 0.03 0.03 0.03 0.03 0.03 
0.03 0.03 0.03 0.03 0.03 0.03 0.03 0.03 0.03 
0.03 0.03 0.03 0.03 0.03 0.03 0.03 0.03 0.03 
0.03 0.03 0.03 0.03 0.03 0.03 0.03 0.03 0.03 
0.03 0.03 0.03 0.03 0.03 0.03 0.03 0.03 0.03 
0.03 0.03 0.03 0.03 0.03 0.03 0.03 0.03 0.03 
0.03 0.03 0.03 0.03 0.03 0.03 0.03 0.03 0.03 
0.03 0.03 0.03 0.03 0.03 0.03 0.03 0.03 0.03 
0.03 0.03 0.03 0.03 0.03 0.03 0.03 0.03 0.03 
0.03 0.03 0.03 0.03 0.03 0.03 0.03 0.03 0.03 
0.03 0.03 0.03 0.03 
