# vtk DataFile Version 5.1
Generated by LIGGGHTS
ASCII
DATASET POLYDATA
POINTS 100 float
-0.0604485 1.3177 -0.576878 0.0424429 1.2959 -0.572093 0.100272 1.30899 -0.581333 
0.22258 1.28058 -0.53635 -0.115474 1.31112 -0.553569 0.00855514 1.27382 -0.525233 
0.0713673 1.76582 -0.507932 0.126348 1.77127 -0.536675 0.186624 1.77167 -0.532937 
0.295905 1.25413 -0.486078 -0.278821 1.34198 -0.506102 0.129848 1.75522 -0.47897 
0.189548 1.7481 -0.477841 0.349544 1.24398 -0.447017 -0.263697 1.31474 -0.454697 
-0.362979 1.37142 -0.460515 0.251203 1.74413 -0.4707 0.311182 1.74387 -0.461312 
0.215153 1.7432 -0.422687 0.273541 1.72779 -0.417435 0.357029 1.73381 -0.423932 
0.400523 1.72467 -0.383608 -0.407894 1.36087 -0.396742 0.268668 1.73532 -0.358081 
0.322741 1.71774 -0.377392 0.492105 1.22942 -0.311994 0.424848 1.7121 -0.329689 
0.362612 1.74499 -0.34178 0.374513 1.70622 -0.297565 0.466132 1.70423 -0.286669 
0.311762 1.72656 -0.315815 0.491424 1.19941 -0.259534 0.418915 1.73906 -0.274121 
0.515883 1.72403 -0.259602 -0.529464 1.41186 -0.266823 0.372689 1.71068 -0.230471 
0.427785 1.68952 -0.241495 0.484664 1.69149 -0.220018 0.548025 1.19825 -0.167909 
-0.5476 1.41009 -0.208982 0.438343 1.68439 -0.182544 0.494524 1.67966 -0.162015 
0.578536 1.20621 -0.104457 -0.57004 1.41892 -0.153908 0.474848 1.66671 -0.106734 
0.533333 1.67678 -0.115564 -0.532382 1.38856 -0.118226 -0.556878 1.41086 -0.0662261 
0.515535 1.66325 -0.0582093 0.596958 1.20088 -0.00776445 0.486257 1.6507 -0.00724913 
0.565687 1.67917 -0.02938 -0.53016 1.4011 -0.0128287 0.540061 1.65378 0.0193225 
-0.577466 1.43165 0.00798666 0.483223 1.64168 0.0520375 -0.565658 1.43659 0.0669382 
0.420324 1.64765 0.115728 0.478214 1.63243 0.111162 0.532812 1.64404 0.0865471 
0.525656 1.63915 0.147389 0.446376 1.62177 0.166171 -0.543108 1.4462 0.166124 
0.497015 1.62504 0.198186 0.410382 1.61727 0.216136 -0.513004 1.45225 0.225433 
0.471392 1.61417 0.251381 0.427751 1.65445 0.259919 0.417565 1.60354 0.290008 
-0.462141 1.4504 0.282072 0.394505 1.64912 0.325168 0.490898 1.63764 0.303041 
0.390588 1.59375 0.347956 0.446332 1.62052 0.339848 -0.440045 1.47506 0.351645 
0.408028 1.11856 0.419003 -0.338468 1.46802 0.387018 -0.397546 1.47813 0.395713 
0.296805 1.57617 0.406922 0.362221 1.59349 0.402121 0.419123 1.61812 0.394801 
-0.282364 1.48718 0.452786 -0.341864 1.50513 0.459876 0.260303 1.57236 0.468541 
0.318817 1.59319 0.460082 0.330702 1.12501 0.490589 -0.174011 1.50531 0.50349 
0.132726 1.54561 0.503934 0.203411 1.55815 0.481573 0.156628 1.59627 0.482429 
-0.273788 1.51362 0.505958 -0.221656 1.52799 0.532105 0.073536 1.53471 0.508762 
-0.156354 1.53335 0.553507 -0.0951797 1.52585 0.545304 0.00339861 1.53983 0.553287 
0.0603767 1.55542 0.563843 0.119213 1.56608 0.558681 0.176902 1.5742 0.54309 
-0.0508616 1.55312 0.575181 
VERTICES 101 100
OFFSETS vtktypeint64
0 1 2 3 4 5 6 7 8 
9 10 11 12 13 14 15 16 17 
18 19 20 21 22 23 24 25 26 
27 28 29 30 31 32 33 34 35 
36 37 38 39 40 41 42 43 44 
45 46 47 48 49 50 51 52 53 
54 55 56 57 58 59 60 61 62 
63 64 65 66 67 68 69 70 71 
72 73 74 75 76 77 78 79 80 
81 82 83 84 85 86 87 88 89 
90 91 92 93 94 95 96 97 98 
99 100 
CONNECTIVITY vtktypeint64
0 1 2 3 4 5 6 7 8 
9 10 11 12 13 14 15 16 17 
18 19 20 21 22 23 24 25 26 
27 28 29 30 31 32 33 34 35 
36 37 38 39 40 41 42 43 44 
45 46 47 48 49 50 51 52 53 
54 55 56 57 58 59 60 61 62 
63 64 65 66 67 68 69 70 71 
72 73 74 75 76 77 78 79 80 
81 82 83 84 85 86 87 88 89 
90 91 92 93 94 95 96 97 98 
99 
POINT_DATA 100
FIELD FieldData 4
id 1 100 int
37 51 61 49 38 88 8 47 63 
90 78 34 62 41 80 64 79 50 
43 16 28 18 1 100 29 98 17 
5 42 10 69 22 96 21 19 84 
73 39 66 95 83 75 74 35 77 
81 30 14 48 86 40 44 68 89 
24 58 53 25 87 72 2 92 70 
82 57 6 56 65 52 59 15 3 
11 9 85 71 4 54 36 97 7 
67 60 20 76 94 13 91 33 12 
45 46 99 32 26 55 93 23 27 
31 
type 1 100 int
1 1 1 1 1 1 1 1 1 
1 1 1 1 1 1 1 1 1 
1 1 1 1 1 1 1 1 1 
1 1 1 1 1 1 1 1 1 
1 1 1 1 1 1 1 1 1 
1 1 1 1 1 1 1 1 1 
1 1 1 1 1 1 1 1 1 
1 1 1 1 1 1 1 1 1 
1 1 1 1 1 1 1 1 1 
1 1 1 1 1 1 1 1 1 
1 1 1 1 1 1 1 1 1 
1 
v 3 100 double
1.9376357444 -0.15943929196 -0.37292649402 1.8744607183 -0.18345370585 0.17445611855 1.8899462625 -0.22986333825 0.18938054743 
1.7977835998 -0.27205350313 0.69760179127 1.9646141174 -0.36652715029 -0.35943663937 1.7987018875 -0.23684570294 0.11618833833 
0.84576473834 -0.14815201614 0.13751779983 0.81712293201 -0.091699721663 0.003793629482 0.80574946194 -0.022981398125 0.22791922741 
1.6595917489 -0.20990353297 1.1993026361 1.7474065571 -0.31597662965 -0.8170910652 0.76841743793 -0.17998874186 -0.017817913536 
0.77501116497 -0.090650655251 0.200613691 1.657349847 -0.35374897348 1.2892410903 1.5956864214 -0.23711939232 -0.71534997386 
1.2121039602 -0.12789419552 -1.0226603477 0.77913283228 -0.12044536129 0.27953524915 0.59713378524 -0.085735557555 0.34848263852 
0.64039960817 -0.12333151973 0.17901484183 0.61730467731 -0.08951643758 0.36234561922 0.52586124796 -0.11542938718 0.42883962575 
0.41589209224 -0.11328043994 0.54898066579 1.2239431856 0.0089341641866 -1.4722055451 0.54305109492 -0.11599251301 0.36029541409 
0.58491059334 -0.11515666984 0.47237607399 1.003945801 -0.51560794789 1.638391298 0.37666107993 -0.13059373317 0.60220122661 
0.47832777456 -0.1268528844 0.60835161686 0.40590354698 -0.097904643708 0.65415199442 0.38841011863 -0.084106134179 0.59443170073 
0.41289413534 -0.11529383207 0.48749749847 1.0227154837 -0.1762324932 1.899100673 0.39095866711 -0.088348630325 0.69489366991 
0.34675489033 -0.05835193872 0.66073318791 0.65617532832 -0.36107105029 -1.4598357665 0.45132269617 -0.16970342338 0.61221713672 
0.41717971458 -0.1105681628 0.65647980047 0.42812609154 -0.10277980577 0.68509504537 0.65332239045 -0.4064598226 1.8321820922 
0.69486325246 -0.35486979354 -1.5865565077 0.39186134732 -0.16089465069 0.62596634347 0.36945806551 -0.11298139843 0.69755099863 
0.35062039706 -0.3954001381 2.26123135 0.59291516454 -0.061194075609 -1.6440869639 0.077584742994 -0.099495335473 0.60970846532 
0.12668934973 -0.13795348172 0.89129171527 0.26411100545 -0.30406813478 -1.6178774751 0.20662514913 -0.26914227947 -1.7872070259 
-0.094440325689 -0.1688371156 0.8706038855 0.22947886013 -0.68328323458 1.8848442493 -0.13615320271 -0.12811096324 0.78906362014 
-0.10369523573 -0.34281199188 0.98280801784 -0.14074960645 -0.19053968895 -1.5490708599 -0.20621532219 -0.21742209648 0.96751642159 
-0.065443178584 0.052688125507 -1.6444365318 -0.058270612363 -0.12978650193 0.79681818412 -0.26989928178 -0.22677241752 -1.6504255393 
-0.18802873704 -0.21046358656 0.83803882115 -0.20002771102 -0.10851078148 0.74803577249 -0.076856687862 -0.11383596439 0.87983847564 
-0.35942555376 -0.15066069828 0.88290176243 -0.32147924379 -0.14889576405 0.8850138579 -0.71260116806 -0.1436390532 -1.404248702 
-0.33308231043 -0.13044536981 0.90076121346 -0.19647449639 -0.26333181496 0.95539991674 -0.64840195198 -0.17026308285 -1.3578090105 
-0.51488103414 -0.1600236014 0.82024906912 -0.49078005206 -0.18439801333 1.013015938 -0.50900010189 -0.17267522517 0.98914221909 
-1.046368422 -0.10366741815 -1.109614062 -0.64733320906 -0.25499472957 0.7639400127 -0.62082772139 -0.15403816818 0.85554637523 
-0.61521420765 -0.18057260247 0.94963058982 -0.55883359429 -0.084238043181 0.98778268271 -1.0395161977 -0.065183153468 -1.0673238931 
-1.7655927578 -0.12862360944 1.5077703354 -0.84068831992 -0.25465318222 -0.88860723199 -0.93949125162 -0.24321499588 -1.1637496453 
-0.84213980519 -0.1750735183 0.68179608623 -0.86504778657 -0.10917276798 0.8567544465 -0.76582636263 -0.21303918522 0.95961014563 
-1.0156173847 -0.12167007832 -0.53035202279 -1.151075811 -0.24682277299 -0.89607603512 -1.1292421139 -0.20971191527 0.43716683938 
-1.0266799811 -0.21513708831 0.77103328183 -1.7222329402 -0.71969857246 1.1581822885 -1.0948263872 -0.14000818756 -0.32017893562 
-1.2507097341 -0.21925566339 0.12331906105 -1.1394488709 -0.22679034045 0.40372141394 -1.1673111373 -0.25314270599 0.14038455931 
-1.1961989471 -0.18179881942 -0.47132216178 -1.223885458 -0.21062972809 -0.50357146201 -1.271215737 -0.28602412063 -0.017258765464 
-1.157890046 -0.086499030459 -0.32888113821 -1.3204799661 -0.17566198087 -0.075991892165 -1.2596796002 -0.18024635029 -0.10516930792 
-1.2365644146 -0.28933070824 0.0042289453576 -1.2181413464 -0.20358191191 0.12800332731 -1.1477074591 -0.27131086264 0.34426882827 
-1.2764417766 -0.17594488055 -0.1436970572 
radius 1 100 double
0.03 0.03 0.03 0.03 0.03 0.03 0.03 0.03 0.03 
0.03 0.03 0.03 0.03 0.03 0.03 0.03 0.03 0.03 
0.03 0.03 0.03 0.03 0.03 0.03 0.03 0.03 0.03 
0.03 0.03 0.03 0.03 0.03 0.03 0.03 0.03 0.03 
0.03 0.03 0.03 0.03 0.03 0.03 0.03 0.03 0.03 
0.03 0.03 0.03 0.03 0.03 0.03 0.03 0.03 0.03 
0.03 0.03 0.03 0.03 0.03 0.03 0.03 0.03 0.03 
0.03 0.03 0.03 0.03 0.03 0.03 0.03 0.03 0.03 
0.03 0.03 0.03 0.03 0.03 0.03 0.03 0.03 0.03 
0.03 0.03 0.03 0.03 0.03 0.03 0.03 0.03 0.03 
0.03 0.03 0.03 0.03 0.03 0.03 0.03 0.03 0.03 
0.03 
