# vtk DataFile Version 5.1
Generated by LIGGGHTS
ASCII
DATASET POLYDATA
POINTS 100 float
-0.0727495 1.85374 -0.596475 0.101421 1.77738 -0.545134 -0.0334828 1.80589 -0.570284 
0.0458159 1.79135 -0.5626 0.163116 1.78459 -0.550632 0.0495326 1.76796 -0.507319 
0.196277 1.75816 -0.505373 -0.0705489 1.79345 -0.524205 -0.0115527 1.78019 -0.520658 
0.242681 1.78596 -0.531332 -0.193895 1.82956 -0.537288 -0.130559 1.81169 -0.536951 
0.0155192 1.83653 -0.535947 0.0735938 1.82279 -0.511203 0.1286 1.83095 -0.533913 
-0.24835 1.85898 -0.530953 -0.134707 1.87121 -0.531034 -0.329829 1.92729 -0.514507 
0.113372 1.7576 -0.489703 0.287979 1.76561 -0.497686 -0.164187 1.8024 -0.488148 
-0.22381 1.81981 -0.486076 -0.105733 1.83098 -0.485878 -0.0198137 1.8289 -0.486107 
-0.302426 1.86669 -0.504833 0.214705 1.73938 -0.451288 0.282355 1.73724 -0.445132 
-0.065011 1.79249 -0.463826 0.00971762 1.78026 -0.464179 0.183745 1.79494 -0.459658 
0.25036 1.78742 -0.456347 0.105163 1.80995 -0.461551 -0.322914 1.84512 -0.452665 
-0.178985 1.85886 -0.474241 -0.36583 1.88592 -0.464017 -0.251337 1.87171 -0.472379 
-0.310695 1.91142 -0.459781 0.33777 1.73163 -0.419987 0.143316 1.7581 -0.435006 
-0.131943 1.80582 -0.437666 0.0602891 1.78313 -0.432014 -0.268585 1.8205 -0.446154 
-0.193475 1.81323 -0.434616 -0.0223897 1.81076 -0.423724 -0.060905 1.85383 -0.441816 
0.288362 1.72662 -0.386316 0.395346 1.73486 -0.402719 -0.349727 1.8365 -0.388728 
-0.237498 1.82412 -0.394976 -0.395179 1.86567 -0.415137 -0.185938 1.86264 -0.400987 
-0.12938 1.84129 -0.389309 -0.314204 1.88177 -0.405952 -0.249701 1.88003 -0.412884 
0.362473 1.71388 -0.35711 0.422801 1.71794 -0.351616 -0.422357 1.86369 -0.358567 
-0.290808 1.83863 -0.371447 -0.309486 1.90993 -0.353166 -0.239663 1.85613 -0.344277 
-0.365174 1.87999 -0.350322 -0.187674 1.88674 -0.345871 -0.471834 1.90223 -0.352668 
0.381936 1.70353 -0.300151 -0.416855 1.85525 -0.295362 -0.357034 1.84864 -0.299786 
-0.297877 1.85843 -0.315218 -0.472467 1.87775 -0.296503 -0.422551 1.90995 -0.319332 
-0.319528 1.91021 -0.293973 -0.243599 1.90398 -0.308307 0.420046 1.69286 -0.251793 
0.476314 1.70184 -0.270587 0.526477 1.72707 -0.249452 -0.380213 1.89956 -0.278069 
-0.40322 1.95489 -0.274638 -0.477286 1.86891 -0.236261 -0.405436 1.86142 -0.236784 
-0.342381 1.88602 -0.233513 -0.437096 1.90761 -0.258328 0.499722 1.69067 -0.208339 
-0.527095 1.90118 -0.226988 -0.471786 1.92349 -0.211959 -0.390501 1.92078 -0.2229 
-0.498482 1.87861 -0.179324 -0.439649 1.87121 -0.188475 0.4883 1.67641 -0.150797 
0.542565 1.6869 -0.126437 -0.388583 1.89556 -0.168496 -0.544388 1.90504 -0.151138 
-0.445012 1.92557 -0.158307 -0.470378 1.88278 -0.124761 -0.415067 1.9045 -0.110775 
0.546211 1.67385 -0.066656 -0.522537 1.89239 -0.096709 -0.465829 1.8935 -0.0659028 
0.592281 1.6962 -0.0151487 -0.518161 1.90067 -0.0374447 0.541658 1.65681 -0.000404733 
0.535991 1.64891 0.168231 
VERTICES 101 100
OFFSETS vtktypeint64
0 1 2 3 4 5 6 7 8 
9 10 11 12 13 14 15 16 17 
18 19 20 21 22 23 24 25 26 
27 28 29 30 31 32 33 34 35 
36 37 38 39 40 41 42 43 44 
45 46 47 48 49 50 51 52 53 
54 55 56 57 58 59 60 61 62 
63 64 65 66 67 68 69 70 71 
72 73 74 75 76 77 78 79 80 
81 82 83 84 85 86 87 88 89 
90 91 92 93 94 95 96 97 98 
99 100 
CONNECTIVITY vtktypeint64
0 1 2 3 4 5 6 7 8 
9 10 11 12 13 14 15 16 17 
18 19 20 21 22 23 24 25 26 
27 28 29 30 31 32 33 34 35 
36 37 38 39 40 41 42 43 44 
45 46 47 48 49 50 51 52 53 
54 55 56 57 58 59 60 61 62 
63 64 65 66 67 68 69 70 71 
72 73 74 75 76 77 78 79 80 
81 82 83 84 85 86 87 88 89 
90 91 92 93 94 95 96 97 98 
99 
POINT_DATA 100
FIELD FieldData 4
id 1 100 int
31 60 32 45 24 4 35 23 46 
95 7 20 59 53 54 56 76 2 
68 80 33 9 99 67 72 1 64 
93 85 30 19 70 92 12 44 3 
15 38 14 27 6 82 97 26 13 
78 51 40 52 48 91 55 65 11 
88 37 81 89 87 57 77 36 10 
61 73 39 58 17 21 75 25 49 
90 98 84 83 18 42 69 96 41 
28 5 100 50 29 22 66 43 79 
16 63 62 74 47 34 71 8 86 
94 
type 1 100 int
1 1 1 1 1 1 1 1 1 
1 1 1 1 1 1 1 1 1 
1 1 1 1 1 1 1 1 1 
1 1 1 1 1 1 1 1 1 
1 1 1 1 1 1 1 1 1 
1 1 1 1 1 1 1 1 1 
1 1 1 1 1 1 1 1 1 
1 1 1 1 1 1 1 1 1 
1 1 1 1 1 1 1 1 1 
1 1 1 1 1 1 1 1 1 
1 1 1 1 1 1 1 1 1 
1 
v 3 100 double
0.60915872265 -0.2840065353 0.0594630551 0.67782632281 -0.13374324226 0.13754410214 0.71646145378 -0.094705171763 -0.11102953775 
0.55417599525 -0.06695426877 0.11221014019 0.78626455911 -0.20791426477 0.17109011972 0.70310644431 -0.13540335232 0.19783418595 
0.75736785025 -0.11472143762 0.26558209149 0.39464723331 0.13491532071 -0.049823023876 0.61495875768 -0.05072160799 -0.037835478193 
0.95795346597 -0.2543166811 0.48016668724 0.54678152951 -0.14294197349 -0.10533257187 0.44900818822 -0.067761751234 -0.089915667038 
0.94319005978 -0.051364394513 0.021936801987 0.93647434525 -0.23919904023 0.13527414277 0.91417951728 -0.078320486914 0.0077038601177 
0.59210966729 -0.20122378835 -0.1745015619 0.67552340443 0.039221127688 -0.44432885842 0.80860754202 -1.0136896578 -0.53837932608 
0.83561342332 -0.187194688 -0.028759318983 0.9656798281 -0.063676683872 0.58658700496 0.34526047974 -0.075031392467 -0.28320572302 
0.38191104982 -0.057963517381 -0.19259980254 0.56441836975 -0.12636159192 -0.16097208755 0.53979737136 0.0023387373994 -0.035562433724 
0.47760162586 -0.53519605986 -0.18007915498 0.83682442775 -0.16178420522 0.23015628095 0.9274725119 -0.13194298574 0.51236908872 
0.53551758344 -0.23251794133 -0.13583002942 0.54892952649 -0.092182218512 0.079915330257 0.87195674538 -0.17994098595 0.34868080078 
0.81803946709 -0.1454125425 0.49819581854 0.91705658183 -0.28161605464 0.18126013485 0.34443864592 -0.1585173851 -0.046371605218 
0.47495211821 -0.065990050617 -0.22162302303 0.26150923042 -0.12203505006 -0.020956229413 0.56255923352 -0.11327488323 -0.18565373948 
0.43641462068 -0.74797303522 -0.44901245133 0.72830249236 -0.16416388915 0.60528506776 0.69447281344 -0.14543232449 0.10857485461 
0.3559931205 -0.24746107388 -0.28841910196 0.7104994045 -0.33508394371 -0.17719494622 0.36361088531 -0.06792512853 -0.21759172307 
0.43591555182 -0.10487342257 -0.22205830478 0.41726654029 -0.022803513283 -0.056119672654 0.82054244154 0.36363013704 -0.066873156658 
0.67170695969 -0.13572813608 0.5250623339 0.69973172132 -0.11983902498 0.77394064651 0.21921219235 -0.029478150039 -0.05248264678 
0.3822719547 -0.11133321562 -0.20271388206 0.19526925566 -0.088080099002 -0.0030939638764 0.53221225635 -0.048026446207 -0.24591213978 
0.45469396555 -0.18771015493 -0.34086922811 0.35283512173 -0.20904730708 -0.0091149894576 0.39790207562 -0.10620538891 -0.19122991605 
0.56211775585 -0.18604653896 0.65353167126 0.60413277386 -0.17082915855 0.8252790815 0.15701555896 -0.077288522417 -0.052736763869 
0.32193137787 -0.4166310521 -0.22649671686 0.2895497443 -0.34688084099 0.087050280461 0.31117913587 -0.054148952218 -0.22650439246 
0.14291436433 -0.029230106388 -0.074700552302 0.32796956133 -0.12325594957 -0.17571859629 0.10234494208 -0.065330076609 -0.095071909124 
1.0527798159 -0.32625456481 0.56287298966 0.057954214733 -0.013543409655 -0.047382722011 0.064171109811 0.0034786254155 -0.058656554491 
0.083888327197 -0.17885382065 -0.33081777181 0.056801317431 -0.01351702955 -0.080049433586 0.13197833471 -0.048956139581 -0.14348517857 
0.0795628155 -0.33873101064 0.053611227788 0.19554637623 -0.12490402018 -0.12001292452 0.60152239198 -0.24782531809 1.0110571628 
0.59900144552 -0.16259526887 1.0442475472 0.53087676358 -0.22258337028 1.2776550377 0.061564925695 -0.023790141053 -0.067123582193 
0.11655303775 0.0042121139401 -0.039249659946 0.053045913252 -0.022942864377 -0.092833166505 0.033718719399 -0.0089250698592 -0.043106149363 
0.054239662068 -0.0066376862299 -0.055219678523 0.046747696784 -0.012503960021 -0.070301161315 0.53729104582 -0.21698347654 1.2529184131 
0.044081829721 -0.024278147196 -0.049857975772 0.088325109137 -0.050529210071 -0.042686548849 0.047620624907 -0.104966207 -0.038845260496 
0.022862060146 -0.0058394386791 -0.027977911823 0.018877380229 -0.0084601716715 -0.054094552115 0.23612220052 -0.24479797603 1.2171316322 
0.15702175523 -0.24356475628 1.3771108483 -0.009604148603 -0.00052124602907 0.011005810186 0.031368223482 -0.021070016988 0.00061542501442 
0.065913640059 -0.058391121924 -0.031218983629 -0.0053173346218 -0.0011029152579 -0.012162658889 0.01159399437 0.018112652075 0.037133353988 
0.18951293676 -0.22079060602 1.3875854312 0.0093798532207 0.00096581021912 0.01427033423 -0.056156362621 -0.026068595777 -0.0036509038409 
0.10966378805 -0.40715995728 1.7183392329 -0.040440373566 0.0069711316645 0.016971126373 0.089744739954 -0.18901449144 1.3732904052 
-0.35803126425 -0.091662347733 2.0279225974 
radius 1 100 double
0.03 0.03 0.03 0.03 0.03 0.03 0.03 0.03 0.03 
0.03 0.03 0.03 0.03 0.03 0.03 0.03 0.03 0.03 
0.03 0.03 0.03 0.03 0.03 0.03 0.03 0.03 0.03 
0.03 0.03 0.03 0.03 0.03 0.03 0.03 0.03 0.03 
0.03 0.03 0.03 0.03 0.03 0.03 0.03 0.03 0.03 
0.03 0.03 0.03 0.03 0.03 0.03 0.03 0.03 0.03 
0.03 0.03 0.03 0.03 0.03 0.03 0.03 0.03 0.03 
0.03 0.03 0.03 0.03 0.03 0.03 0.03 0.03 0.03 
0.03 0.03 0.03 0.03 0.03 0.03 0.03 0.03 0.03 
0.03 0.03 0.03 0.03 0.03 0.03 0.03 0.03 0.03 
0.03 0.03 0.03 0.03 0.03 0.03 0.03 0.03 0.03 
0.03 
