# vtk DataFile Version 5.1
Generated by LIGGGHTS
ASCII
DATASET POLYDATA
POINTS 100 float
0.055597 1.3002 -0.574614 -0.0685348 1.32154 -0.5776 0.131352 1.28119 -0.560072 
0.188828 1.27486 -0.539875 -0.124237 1.31416 -0.55654 0.112528 1.77418 -0.540128 
-0.223989 1.32834 -0.519533 -0.00212885 1.77561 -0.510505 0.0526982 1.77861 -0.534698 
-0.155102 1.29897 -0.507262 -0.290192 1.34744 -0.503429 0.121708 1.75648 -0.48354 
0.181815 1.75387 -0.492969 0.257773 1.75106 -0.489775 0.388542 1.27363 -0.451039 
0.21744 1.73935 -0.446928 0.31041 1.74401 -0.461852 0.0593583 1.76952 -0.475765 
0.381442 1.22636 -0.410132 0.270236 1.72849 -0.420071 0.360482 1.73888 -0.429183 
0.160088 1.75395 -0.437042 -0.410769 1.38015 -0.422214 0.222705 1.74528 -0.38745 
0.389888 1.72255 -0.379499 0.317558 1.75737 -0.391562 -0.395396 1.3466 -0.374578 
0.336839 1.71587 -0.352268 0.273725 1.73388 -0.357999 0.473627 1.2265 -0.32551 
-0.457811 1.37682 -0.346833 0.433006 1.71526 -0.338417 0.379597 1.75006 -0.327181 
0.524045 1.24579 -0.290889 0.392644 1.70006 -0.296711 0.485505 1.73172 -0.314469 
0.449655 1.70031 -0.278018 0.336961 1.71971 -0.286089 -0.495294 1.37702 -0.251981 
0.403706 1.6986 -0.237755 0.460176 1.6886 -0.220123 0.513486 1.68955 -0.19261 
0.571767 1.22626 -0.177259 0.460468 1.67551 -0.161571 0.514415 1.67674 -0.134002 
-0.573398 1.41998 -0.129578 0.564915 1.70058 -0.112072 0.486764 1.66387 -0.0823288 
-0.584643 1.43281 -0.0627207 0.543496 1.67106 -0.0641745 0.48193 1.65345 -0.0233641 
0.536985 1.65582 0.002239 -0.54124 1.40872 0.0267244 -0.589107 1.44063 0.00970966 
0.432131 1.66046 0.0445878 0.491759 1.66567 0.0404329 0.546497 1.6559 0.062977 
-0.555928 1.43515 0.0908233 0.467394 1.63611 0.0866505 -0.503247 1.42065 0.122674 
0.430445 1.63728 0.133963 0.5194 1.63687 0.116562 -0.548711 1.44628 0.152374 
0.508715 1.63056 0.175265 0.465808 1.67185 0.167934 0.450586 1.61869 0.195041 
-0.52379 1.45241 0.208836 0.535943 1.65459 0.223027 0.529608 1.15082 0.25542 
0.433049 1.60953 0.253428 0.490522 1.62674 0.254183 0.44212 1.66778 0.242264 
-0.462926 1.45065 0.282716 0.425213 1.60296 0.319191 0.477565 1.63252 0.314059 
0.365895 1.59166 0.3416 0.471511 1.1718 0.371562 -0.43587 1.46555 0.34262 
-0.364256 1.46554 0.372722 0.40216 1.60704 0.386898 0.352128 1.59408 0.417481 
-0.33042 1.48246 0.430795 0.298468 1.57568 0.437086 -0.246757 1.48599 0.455262 
0.241794 1.5688 0.475385 0.259229 1.62178 0.451903 -0.18734 1.49835 0.486054 
-0.297698 1.5042 0.483371 0.177259 1.55629 0.499093 0.292477 1.59458 0.495782 
-0.23034 1.5193 0.522276 -0.0738778 1.51559 0.515354 0.0187388 1.53578 0.539356 
0.223743 1.58646 0.529816 -0.161859 1.51896 0.538238 -0.108719 1.53511 0.560939 
-0.0473172 1.53899 0.564296 0.112774 1.55777 0.542527 0.167978 1.57835 0.554138 
0.0606295 1.5639 0.571846 
VERTICES 101 100
OFFSETS vtktypeint64
0 1 2 3 4 5 6 7 8 
9 10 11 12 13 14 15 16 17 
18 19 20 21 22 23 24 25 26 
27 28 29 30 31 32 33 34 35 
36 37 38 39 40 41 42 43 44 
45 46 47 48 49 50 51 52 53 
54 55 56 57 58 59 60 61 62 
63 64 65 66 67 68 69 70 71 
72 73 74 75 76 77 78 79 80 
81 82 83 84 85 86 87 88 89 
90 91 92 93 94 95 96 97 98 
99 100 
CONNECTIVITY vtktypeint64
0 1 2 3 4 5 6 7 8 
9 10 11 12 13 14 15 16 17 
18 19 20 21 22 23 24 25 26 
27 28 29 30 31 32 33 34 35 
36 37 38 39 40 41 42 43 44 
45 46 47 48 49 50 51 52 53 
54 55 56 57 58 59 60 61 62 
63 64 65 66 67 68 69 70 71 
72 73 74 75 76 77 78 79 80 
81 82 83 84 85 86 87 88 89 
90 91 92 93 94 95 96 97 98 
99 
POINT_DATA 100
FIELD FieldData 4
id 1 100 int
49 61 90 41 51 63 37 8 47 
88 38 62 79 50 98 16 28 34 
22 29 18 43 78 100 17 5 80 
42 69 66 64 10 96 74 73 21 
39 84 1 83 75 81 86 77 48 
19 44 40 95 89 58 72 30 35 
25 87 2 14 92 68 57 82 24 
56 65 52 53 3 71 11 9 15 
70 97 7 36 94 6 59 76 20 
85 33 4 91 12 67 54 99 27 
60 13 26 23 45 46 32 55 93 
31 
type 1 100 int
1 1 1 1 1 1 1 1 1 
1 1 1 1 1 1 1 1 1 
1 1 1 1 1 1 1 1 1 
1 1 1 1 1 1 1 1 1 
1 1 1 1 1 1 1 1 1 
1 1 1 1 1 1 1 1 1 
1 1 1 1 1 1 1 1 1 
1 1 1 1 1 1 1 1 1 
1 1 1 1 1 1 1 1 1 
1 1 1 1 1 1 1 1 1 
1 1 1 1 1 1 1 1 1 
1 
v 3 100 double
1.8993625495 -0.2466151961 0.090040965361 1.8550619084 -0.13849336935 -0.35775729811 1.9558648026 -0.47367913361 0.34949461126 
1.9267119546 -0.37050734391 0.73831688407 1.8163393764 -0.20103526251 -0.45241605685 0.80618299475 -0.082658139892 -0.015751858541 
1.699108566 -0.20689424671 -0.91730670729 0.79124259491 -0.15674751142 -0.086029767607 0.8054799047 -0.071697845372 -0.042952459403 
1.7929746715 -0.39742707367 -0.54581869152 1.8504061824 -0.30693583256 -0.64115671162 0.78226666522 -0.18686830906 -0.044529367752 
0.74979501829 -0.094667941083 0.21250085317 0.59555687126 -0.11569102776 0.27762797251 1.4342205711 -0.72982117354 1.2851780431 
0.6237815094 -0.10189460255 0.30785949665 0.54274511242 -0.098784700003 0.38026987699 0.75823538895 -0.14503981651 -0.048951192906 
1.3914733796 -0.39782765673 1.4269453703 0.58472363251 -0.10794788514 0.41516056546 0.48732465136 -0.17536084781 0.45458997946 
0.59185909795 -0.11583981124 0.15118166943 1.3368418518 -0.2493271315 -0.99974381564 0.49892668702 -0.11131900193 0.29743204994 
0.40402350344 -0.10788322275 0.52653650325 0.51048072751 -0.15601219257 0.46989336995 1.3795920154 -0.2183882356 -1.0047515066 
0.43184489553 -0.11657989306 0.58869101427 0.4318328824 -0.077606838382 0.4219176546 1.1375634234 -0.35508031496 1.6169447621 
0.85358754135 -0.12562757383 -1.4991670693 0.34675930243 -0.12643558028 0.58455207404 0.48934383665 -0.11823607529 0.54965357217 
0.67500260354 -0.2635335719 1.91877744 0.38160674659 -0.095392757636 0.6200028542 0.36330126315 -0.16021467149 0.56211991704 
0.37676350635 -0.098763242183 0.62901966493 0.38013842911 -0.093212258127 0.61019784273 0.7196934208 -0.30857053526 -1.7015933956 
0.38235266324 -0.156946498 0.61868042408 0.39006451982 -0.094017453163 0.62875510989 0.29790839268 -0.17055666237 0.81102967168 
0.80752905535 -0.26599455063 1.8689236135 0.29963992064 -0.11783897601 0.62337168482 0.104493059 -0.13405543371 0.82225801538 
0.065470286078 -0.15408197445 -1.7094869478 0.10079572472 -0.14590063697 0.84369756353 0.12215467477 -0.13542356337 0.83392538428 
0.15631490606 -0.21897492292 -1.6060744802 0.11615000587 -0.13504246682 0.86884054439 0.11905370909 -0.13974306613 0.8402096556 
-0.012790646771 -0.13407120419 0.90683710178 -0.089845981742 -0.27855389553 -1.5987848204 0.13018789461 -0.075573414324 -1.8809952151 
-0.12290916721 -0.11114263256 0.7502120897 -0.10595206844 -0.23305078369 0.82740465401 -0.12490879 -0.1497115342 0.91550712915 
-0.19639636289 -0.27600593184 -1.6136453638 -0.22303386778 -0.09359225321 0.86443599789 -0.52819760841 -0.20878027175 -1.5743860067 
-0.24458667588 -0.19521715364 0.85951580845 -0.22901056545 -0.15732672502 0.87672469276 -0.42495041528 -0.013525745068 -1.5730007888 
-0.3172716743 -0.12305220732 0.86433318087 -0.39431048535 -0.17921082541 0.99903880119 -0.27230615024 -0.16195261927 1.0342364835 
-0.70340608921 -0.17979266918 -1.4679333939 -0.41090523341 -0.17882044488 0.94575461746 -0.8867415457 -0.41726607095 2.0758930492 
-0.37164665974 -0.16344066558 1.0516052937 -0.37414118279 -0.15131905937 0.96554480374 -0.4575952361 -0.16146043451 0.99201589207 
-1.1140174843 -0.079481115005 -1.0450901592 -0.5428249495 -0.072152426628 0.98428762555 -0.52431655293 -0.080753836387 0.91978992102 
-0.69350640084 -0.16831585009 0.75779262798 -1.3161891507 -0.46145675582 1.581251644 -1.1615748686 -0.21256058301 -1.3798772561 
-1.1179125545 -0.13579828697 -0.92659253868 -0.83368839797 -0.081144540679 0.85577788386 -0.92037201945 -0.20086848229 0.66716298334 
-1.2981937874 -0.15165723884 -0.66458779195 -0.93588263733 -0.23008371998 0.60478325086 -1.0602182889 -0.15624446771 -0.66062358392 
-1.184252951 -0.20426138563 0.49968067998 -1.0862611877 -0.24560470426 0.52451668064 -1.1136736847 -0.097897483398 -0.21247153002 
-1.285454457 -0.27481945094 -0.90820364635 -1.0556061814 -0.21898262226 0.35282854877 -1.2276309972 -0.16270019364 0.62963735025 
-1.3163823074 -0.11379043659 -0.44392238293 -1.1351796578 -0.096118907088 0.06159922042 -1.2077223675 -0.15830853678 0.22709556924 
-1.1560548084 -0.17419151445 0.4999770495 -1.3330319079 -0.047160508543 -0.072173960989 -1.3241061637 -0.080460917835 -0.069318397583 
-1.2581393667 -0.054064104742 0.13493082789 -1.1737712796 -0.12501231204 0.30963766756 -1.1172633406 -0.31214428734 0.37689291118 
-1.2226964892 -0.086906487881 0.236436807 
radius 1 100 double
0.03 0.03 0.03 0.03 0.03 0.03 0.03 0.03 0.03 
0.03 0.03 0.03 0.03 0.03 0.03 0.03 0.03 0.03 
0.03 0.03 0.03 0.03 0.03 0.03 0.03 0.03 0.03 
0.03 0.03 0.03 0.03 0.03 0.03 0.03 0.03 0.03 
0.03 0.03 0.03 0.03 0.03 0.03 0.03 0.03 0.03 
0.03 0.03 0.03 0.03 0.03 0.03 0.03 0.03 0.03 
0.03 0.03 0.03 0.03 0.03 0.03 0.03 0.03 0.03 
0.03 0.03 0.03 0.03 0.03 0.03 0.03 0.03 0.03 
0.03 0.03 0.03 0.03 0.03 0.03 0.03 0.03 0.03 
0.03 0.03 0.03 0.03 0.03 0.03 0.03 0.03 0.03 
0.03 0.03 0.03 0.03 0.03 0.03 0.03 0.03 0.03 
0.03 
