# vtk DataFile Version 5.1
Generated by LIGGGHTS
ASCII
DATASET POLYDATA
POINTS 100 float
-0.120141 1.86288 -0.59017 -0.0199229 1.80018 -0.567399 0.0499861 1.78366 -0.546417 
0.164202 1.79839 -0.562662 -0.0918374 1.81449 -0.561927 0.103526 1.81083 -0.54786 
-0.0058631 1.77671 -0.513922 0.13404 1.76577 -0.522332 0.211685 1.77766 -0.531858 
-0.0647584 1.78812 -0.514028 -0.175288 1.81935 -0.526958 -0.00625865 1.83671 -0.51338 
-0.230138 1.84695 -0.531012 -0.0628142 1.85249 -0.5257 0.0533805 1.84138 -0.530074 
-0.287664 1.87341 -0.519423 0.0508586 1.76926 -0.488159 0.207837 1.74798 -0.47856 
0.117206 1.80597 -0.481091 0.178197 1.79984 -0.487291 -0.263263 1.83188 -0.483113 
-0.11681 1.8172 -0.507448 -0.180197 1.88531 -0.49193 -0.335798 1.90527 -0.482982 
0.27395 1.74345 -0.465358 0.33257 1.74664 -0.452828 0.147957 1.75288 -0.465375 
-0.108197 1.80047 -0.448683 -0.0339861 1.78789 -0.462115 -0.199734 1.80866 -0.473088 
0.0359794 1.82521 -0.472334 -0.34524 1.85466 -0.449307 -0.222393 1.86506 -0.454337 
-0.139902 1.85073 -0.463385 -0.0728467 1.84536 -0.466978 -0.287177 1.87917 -0.454978 
-0.405125 1.9235 -0.455814 -0.389806 1.98764 -0.458906 0.231793 1.73885 -0.422901 
0.375651 1.73098 -0.41232 0.089949 1.76886 -0.442621 0.00694625 1.8057 -0.421904 
-0.296454 1.82569 -0.429333 -0.125188 1.89618 -0.42656 -0.334822 1.95762 -0.425541 
0.302649 1.7251 -0.404985 -0.21891 1.81871 -0.416411 -0.158921 1.81814 -0.416744 
-0.0566033 1.81856 -0.415769 -0.369122 1.84647 -0.392956 -0.413119 1.88254 -0.412574 
-0.27249 1.89656 -0.399376 -0.347362 1.90128 -0.404511 0.41557 1.71696 -0.350488 
-0.265678 1.82914 -0.377879 -0.313008 1.86324 -0.363511 -0.221313 1.86919 -0.384081 
-0.166691 1.87284 -0.359486 0.360541 1.70921 -0.32787 0.30435 1.72653 -0.345026 
0.477544 1.74666 -0.34281 -0.429719 1.86662 -0.353184 -0.260709 1.86094 -0.327228 
-0.372326 1.88187 -0.344619 -0.477372 1.90511 -0.346924 -0.332877 1.92679 -0.349651 
-0.222426 1.90614 -0.336771 0.453479 1.70771 -0.304036 -0.416866 1.85531 -0.294939 
-0.357059 1.85057 -0.295761 -0.472762 1.87699 -0.292534 -0.427685 1.91202 -0.314013 
-0.304628 1.87641 -0.281882 -0.382652 1.90108 -0.275911 -0.255347 1.92076 -0.28866 
-0.407637 1.95704 -0.272051 -0.332014 1.93068 -0.288569 0.458676 1.694 -0.244712 
0.514844 1.70843 -0.229075 -0.478607 1.86957 -0.232308 -0.406376 1.86172 -0.235411 
-0.438594 1.90853 -0.254626 -0.347434 1.88599 -0.229745 -0.52858 1.90192 -0.224673 
-0.476256 1.92859 -0.212461 -0.391778 1.92548 -0.221152 0.519497 1.68528 -0.173829 
-0.49991 1.87907 -0.177013 -0.440824 1.87185 -0.184528 -0.387873 1.89558 -0.169281 
0.571621 1.71618 -0.14917 -0.546768 1.90668 -0.151683 -0.446141 1.92694 -0.160518 
0.533145 1.67689 -0.114203 -0.470005 1.88269 -0.125092 -0.414453 1.90315 -0.115351 
-0.522973 1.89216 -0.098551 -0.462403 1.89484 -0.0668272 -0.515576 1.90007 -0.0395319 
0.545679 1.6596 0.00505077 
VERTICES 101 100
OFFSETS vtktypeint64
0 1 2 3 4 5 6 7 8 
9 10 11 12 13 14 15 16 17 
18 19 20 21 22 23 24 25 26 
27 28 29 30 31 32 33 34 35 
36 37 38 39 40 41 42 43 44 
45 46 47 48 49 50 51 52 53 
54 55 56 57 58 59 60 61 62 
63 64 65 66 67 68 69 70 71 
72 73 74 75 76 77 78 79 80 
81 82 83 84 85 86 87 88 89 
90 91 92 93 94 95 96 97 98 
99 100 
CONNECTIVITY vtktypeint64
0 1 2 3 4 5 6 7 8 
9 10 11 12 13 14 15 16 17 
18 19 20 21 22 23 24 25 26 
27 28 29 30 31 32 33 34 35 
36 37 38 39 40 41 42 43 44 
45 46 47 48 49 50 51 52 53 
54 55 56 57 58 59 60 61 62 
63 64 65 66 67 68 69 70 71 
72 73 74 75 76 77 78 79 80 
81 82 83 84 85 86 87 88 89 
90 91 92 93 94 95 96 97 98 
99 
POINT_DATA 100
FIELD FieldData 4
id 1 100 int
31 45 60 95 32 24 4 35 80 
46 20 53 7 59 54 56 68 64 
30 19 9 23 76 72 38 51 1 
93 85 33 70 92 12 99 67 3 
44 2 78 37 14 6 82 13 15 
88 97 27 26 40 48 11 65 90 
52 89 91 55 49 61 98 81 57 
77 10 87 36 41 73 39 17 21 
58 84 25 83 75 22 66 18 42 
96 69 28 5 100 74 50 29 43 
71 79 16 86 63 62 47 34 8 
94 
type 1 100 int
1 1 1 1 1 1 1 1 1 
1 1 1 1 1 1 1 1 1 
1 1 1 1 1 1 1 1 1 
1 1 1 1 1 1 1 1 1 
1 1 1 1 1 1 1 1 1 
1 1 1 1 1 1 1 1 1 
1 1 1 1 1 1 1 1 1 
1 1 1 1 1 1 1 1 1 
1 1 1 1 1 1 1 1 1 
1 1 1 1 1 1 1 1 1 
1 1 1 1 1 1 1 1 1 
1 
v 3 100 double
0.58781767624 0.18335189224 -0.13444709277 0.81476140729 -0.14617949586 -0.074703527821 0.67446354989 -0.036172021184 0.0056762358004 
0.96949194177 -0.049464239355 0.29642905253 0.77194734182 -0.052447834963 -0.13060964801 0.79839701253 -0.18598276777 -0.076512945357 
0.65155267924 -0.081735453815 0.011465363843 0.79822715264 -0.071446318245 0.157370741 0.94751941726 -0.079748094621 0.31545385928 
0.68023080066 -0.079810137723 -0.12851593178 0.59579851299 -0.17002752809 -0.076463368383 0.93075839772 -0.07723889322 -0.01599257248 
0.463515224 -0.081979576098 -0.10487530059 0.95072846197 -0.12647202557 -0.17240859075 0.90715485237 0.030267592279 -0.054846083475 
0.43169020629 -0.15721120461 -0.16388199922 0.71218143123 -0.11588030102 0.016616569943 0.92895555841 -0.14518257166 0.33788716144 
0.80535450244 -0.093446175785 0.18634192158 0.91223836329 -0.14710974937 0.32266413431 0.45921540015 -0.11209405191 -0.10798491701 
0.63959717495 -0.11227135903 -0.17480322512 0.38524807928 -0.52126035196 -0.71949721474 0.2595152511 -0.51638973849 -0.52526482294 
0.841858181 -0.13097893407 0.52348208127 0.82587970168 -0.15237971926 0.61706143811 0.8062671942 -0.16819582014 0.13175994142 
0.59157295717 -0.10603444885 -0.1369040025 0.51857997673 -0.081890781594 -0.053913549221 0.58655807731 -0.09064270914 -0.15675973281 
0.78819087645 -0.092617538216 0.10346009652 0.31220619689 -0.028833083332 0.018932604287 0.56346967607 -0.1014516762 -0.26934730614 
0.24982922881 -0.17380381384 -0.31626100654 0.68751678708 -0.22362649474 -0.23289443192 0.40799209577 -0.05682406383 -0.24364292682 
0.34261197738 -0.64058189047 -0.35101582228 0.6191284505 -0.51901699342 -0.93212904971 0.71956303058 -0.15336681385 0.39230705856 
0.76285288641 -0.26193195077 0.61890069613 0.67941663873 -0.10740836708 0.085654759992 0.62989492073 -0.25334847583 -0.10323609138 
0.46248931755 -0.089529150779 -0.22970530174 0.75033560823 -0.39724115545 -0.26186319297 0.19835182655 -0.44849683076 -0.37763750258 
0.84112961743 -0.13576949706 0.53744732795 0.32211155516 -0.067547336143 -0.20892909579 0.31713781571 -0.16760139505 -0.28570882895 
0.43107259271 -0.093864282372 -0.086845116415 0.3858517568 -0.21754193566 0.12486576857 0.28732027469 -0.70065314359 -0.32984687792 
0.15851192427 -0.41361238553 -0.04166535738 0.42586170252 -0.34391199268 -0.12944262388 0.83275004904 -0.1840449266 0.95065346206 
0.42966879776 -0.070387452733 -0.18169885009 0.035350211801 -0.56481138707 -0.2040765864 0.40448134765 -0.059144781738 -0.21483085942 
0.48399832526 -0.36070614726 -0.33579148883 0.82024443103 -0.22681524611 0.90576248063 0.90336812144 -0.20009979751 0.53721734082 
0.67739648001 -0.32269100535 1.0827502539 0.085124190829 -0.041344568223 -0.02385128196 0.14878254469 -0.054612899873 -0.15482429049 
0.086910137831 -0.035973219804 -0.027524393429 0.062351097341 -0.051246415344 -0.045968073516 0.21089543541 -0.15898235495 -0.17700924265 
0.4687325876 -0.29727022242 -0.020977097901 0.63535932134 -0.25141209252 1.1277758979 0.010892246061 0.00038809204727 0.018245432362 
0.015343280007 0.021782941646 0.032590597044 0.0036669977719 -7.2547546381e-05 -0.023852463907 0.032706575076 -0.060172755463 -0.00025686854813 
-0.22210503846 -0.2802847012 -0.67930549285 0.017414910711 0.019254140974 0.040388910468 -0.03909981413 -0.37753864061 -0.29993872018 
-0.063908212969 0.0094096480455 0.041419393424 0.23620707238 -0.42947631922 -0.10683393232 0.5046670128 -0.20975221017 1.1153746385 
0.48933924394 -0.26714135401 1.2939851595 -0.0035233198729 -0.0046064544473 -0.017467613427 -0.042349431 -0.008016865856 0.0098862822306 
-0.017931810386 -0.0011691331864 -0.010197434754 0.076556443424 0.026083011761 -0.0025153562991 -0.0035384039478 -0.0030920651513 -0.030596700926 
0.032389630243 -0.11806555091 0.071818540717 0.0085152390686 -0.04570307958 -0.022516464375 0.51859606244 -0.22126574558 1.2620956984 
0.0077264326094 0.00047263934502 -0.019315418497 0.008695423738 -0.0048665761281 -0.024705923758 0.00020980798668 -0.0024632343302 -0.00027851423628 
0.44775484528 -0.062924968019 1.6396306545 0.016933268105 -0.01674661778 0.023184193312 -0.10641796484 -0.14319449514 0.20221794723 
0.20869684226 -0.27261134163 1.4758812344 -0.0025999242374 0.00014978556152 0.0017601749336 -0.018096751579 0.019841410945 0.040724943908 
0.0094440684677 0.0044137734519 0.031547416993 -0.034587063724 -0.013988727773 0.0091340196629 -0.017145812661 0.0069382253211 0.037528742585 
0.032308465458 -0.08275824366 2.0366575973 
radius 1 100 double
0.03 0.03 0.03 0.03 0.03 0.03 0.03 0.03 0.03 
0.03 0.03 0.03 0.03 0.03 0.03 0.03 0.03 0.03 
0.03 0.03 0.03 0.03 0.03 0.03 0.03 0.03 0.03 
0.03 0.03 0.03 0.03 0.03 0.03 0.03 0.03 0.03 
0.03 0.03 0.03 0.03 0.03 0.03 0.03 0.03 0.03 
0.03 0.03 0.03 0.03 0.03 0.03 0.03 0.03 0.03 
0.03 0.03 0.03 0.03 0.03 0.03 0.03 0.03 0.03 
0.03 0.03 0.03 0.03 0.03 0.03 0.03 0.03 0.03 
0.03 0.03 0.03 0.03 0.03 0.03 0.03 0.03 0.03 
0.03 0.03 0.03 0.03 0.03 0.03 0.03 0.03 0.03 
0.03 0.03 0.03 0.03 0.03 0.03 0.03 0.03 0.03 
0.03 
