# vtk DataFile Version 5.1
Generated by LIGGGHTS
ASCII
DATASET POLYDATA
POINTS 100 float
0.158473 1.29996 -0.568966 0.0983256 1.28418 -0.562804 -0.0748698 1.31318 -0.57014 
-0.203843 1.34228 -0.547171 -0.0744255 1.28535 -0.516919 0.243784 1.26665 -0.519055 
0.300577 1.28591 -0.516455 -0.264396 1.35253 -0.520451 0.213995 1.76505 -0.519959 
0.200989 1.24432 -0.48342 0.148171 1.7529 -0.488452 0.270106 1.75808 -0.499275 
0.202644 1.74316 -0.465263 0.258553 1.73598 -0.444703 0.40336 1.24888 -0.421974 
0.318969 1.7347 -0.432075 0.375992 1.73099 -0.412198 -0.410055 1.36804 -0.413305 
0.278185 1.7293 -0.3884 0.334254 1.71578 -0.371871 0.415376 1.72279 -0.367274 
0.459926 1.21944 -0.329324 -0.448671 1.37631 -0.366074 0.386955 1.70521 -0.317444 
0.449698 1.71155 -0.319295 -0.486706 1.38849 -0.321298 0.329245 1.7208 -0.312292 
0.501247 1.21354 -0.269623 -0.453134 1.35681 -0.281259 0.360289 1.71322 -0.261308 
0.467849 1.69917 -0.263198 0.417082 1.72996 -0.27184 -0.507802 1.38623 -0.254605 
0.420658 1.69182 -0.223553 0.504385 1.69403 -0.215873 0.4593 1.72734 -0.194487 
0.471878 1.67736 -0.163769 0.550329 1.71191 -0.181465 -0.520264 1.3862 -0.180217 
-0.56641 1.42466 -0.173245 0.531827 1.68045 -0.133788 0.414483 1.69334 -0.156684 
0.553089 1.18315 -0.102175 0.480681 1.6672 -0.105294 -0.561907 1.41198 -0.11313 
0.533256 1.66855 -0.0749862 0.571913 1.18063 -0.0355079 0.481681 1.65448 -0.031981 
0.539581 1.65871 -0.0152595 0.572885 1.17211 0.0490167 -0.588503 1.44 0.000162981 
0.496856 1.64726 0.0256872 0.469096 1.63728 0.0779834 0.537932 1.649 0.0694945 
-0.556642 1.4281 0.0625594 0.57468 1.16958 0.146043 0.464935 1.62763 0.137085 
0.52465 1.63618 0.126585 -0.549212 1.44546 0.147721 0.54684 1.15577 0.203176 
0.446125 1.61833 0.193596 0.388519 1.62966 0.205974 0.504235 1.62827 0.182447 
-0.531912 1.46232 0.215981 0.395875 1.60451 0.259949 0.477614 1.6168 0.244653 
-0.484818 1.44647 0.251837 -0.427321 1.44473 0.276232 0.444936 1.60839 0.294269 
0.356454 1.5949 0.304149 -0.449139 1.46894 0.334742 0.405802 1.59662 0.338243 
0.359109 1.63204 0.354704 -0.390476 1.46876 0.374125 0.352061 1.58577 0.393222 
0.408328 1.61372 0.397622 0.301542 1.62485 0.395758 -0.393149 1.4995 0.42558 
0.304826 1.57669 0.4314 0.366875 1.6108 0.445781 -0.340175 1.49855 0.453943 
-0.282664 1.48424 0.444101 0.195641 1.55564 0.475655 -0.287394 1.51223 0.497022 
-0.071686 1.51196 0.496607 -0.0131482 1.52141 0.505612 0.0248752 1.55878 0.478117 
0.126254 1.54325 0.501677 0.251699 1.57568 0.484018 0.312352 1.59928 0.486476 
-0.229395 1.50774 0.511799 -0.12624 1.51296 0.521521 0.0678365 1.53513 0.512671 
0.189362 1.57394 0.532449 0.110159 1.06498 0.564566 0.190173 1.08503 0.549825 
-0.181032 1.52687 0.541718 -0.0771625 1.53142 0.553938 -0.0182894 1.54116 0.562026 
0.0409207 1.55112 0.563853 
VERTICES 101 100
OFFSETS vtktypeint64
0 1 2 3 4 5 6 7 8 
9 10 11 12 13 14 15 16 17 
18 19 20 21 22 23 24 25 26 
27 28 29 30 31 32 33 34 35 
36 37 38 39 40 41 42 43 44 
45 46 47 48 49 50 51 52 53 
54 55 56 57 58 59 60 61 62 
63 64 65 66 67 68 69 70 71 
72 73 74 75 76 77 78 79 80 
81 82 83 84 85 86 87 88 89 
90 91 92 93 94 95 96 97 98 
99 100 
CONNECTIVITY vtktypeint64
0 1 2 3 4 5 6 7 8 
9 10 11 12 13 14 15 16 17 
18 19 20 21 22 23 24 25 26 
27 28 29 30 31 32 33 34 35 
36 37 38 39 40 41 42 43 44 
45 46 47 48 49 50 51 52 53 
54 55 56 57 58 59 60 61 62 
63 64 65 66 67 68 69 70 71 
72 73 74 75 76 77 78 79 80 
81 82 83 84 85 86 87 88 89 
90 91 92 93 94 95 96 97 98 
99 
POINT_DATA 100
FIELD FieldData 4
id 1 100 int
37 38 78 64 80 51 61 1 47 
88 8 63 34 62 49 79 50 19 
43 16 28 90 95 29 18 35 100 
41 30 69 17 5 14 42 10 96 
73 21 68 24 39 84 98 83 53 
75 22 77 81 66 70 48 40 44 
6 74 58 89 59 86 87 25 72 
85 92 2 54 4 82 57 60 56 
65 67 52 3 15 45 11 9 46 
13 36 32 99 91 12 20 97 7 
26 55 33 76 94 71 31 93 23 
27 
type 1 100 int
1 1 1 1 1 1 1 1 1 
1 1 1 1 1 1 1 1 1 
1 1 1 1 1 1 1 1 1 
1 1 1 1 1 1 1 1 1 
1 1 1 1 1 1 1 1 1 
1 1 1 1 1 1 1 1 1 
1 1 1 1 1 1 1 1 1 
1 1 1 1 1 1 1 1 1 
1 1 1 1 1 1 1 1 1 
1 1 1 1 1 1 1 1 1 
1 1 1 1 1 1 1 1 1 
1 
v 3 100 double
1.9213549758 -0.022948281435 0.63555933195 1.9092136216 -0.25729332811 0.21089064084 1.9000031607 -0.23936137783 -0.29992286478 
1.6233171787 -0.45062945502 -0.55421988402 1.8321802873 -0.24790728453 -0.35368783944 1.7800755239 -0.34086670846 0.76182495878 
1.6387704851 -0.033043075421 1.0754067294 1.4193533173 -0.13412812316 -0.70829250852 0.74077275242 -0.12398440877 0.30203689792 
1.6653829715 -0.28035306295 0.66189339918 0.59709142857 -0.10490983752 0.24948050856 0.71650698049 -0.21142104121 0.37403141262 
0.58461981205 -0.11382363114 0.27440298228 0.54626289551 -0.099499004241 0.38412524197 1.5223916208 -0.41215483044 1.2712416718 
0.58406802054 -0.11148191168 0.42435975516 0.55751860321 -0.18662721271 0.50581557692 1.4550933304 -0.27001979462 -1.1597710479 
0.54251935695 -0.11346457833 0.38472349594 0.5112809104 -0.13219723621 0.4775568814 0.45052101387 -0.12699772447 0.59785920524 
1.2828080084 -0.33959501125 1.6733772622 1.1046300617 -0.3192704791 -1.3415333349 0.48600100012 -0.12186645276 0.62100287008 
0.43079407706 -0.12685042623 0.60679583633 1.0684259039 -0.4139357154 -1.3465547236 0.46773223738 -0.13275706142 0.4730099601 
1.0164759583 -0.12712433747 1.920344503 1.0937837765 -0.32066315417 -1.2786462914 0.4350576596 -0.11756065199 0.52228868165 
0.47915557799 -0.081157207838 0.61972799533 0.44367081962 -0.13193515085 0.65541130806 0.6654491137 -0.27303838751 -1.6761250509 
0.41917587422 -0.17244635817 0.68620731093 0.28121892424 -0.1632879225 0.77002524724 0.30912161434 -0.13821562148 0.79045416817 
0.37436576561 -0.12960920613 0.77788939189 0.26677887442 -0.1626454998 0.74630949033 0.44363648875 -0.13851926387 -1.4776771538 
0.50111459843 -0.023587983824 -1.6108203768 0.32306961091 0.02948788129 0.90366640621 0.36069636344 -0.14947010939 0.71295089165 
0.22658253439 -0.5025789664 2.0467190996 0.3133225722 -0.10176327343 0.79185586727 0.2795747747 -0.31191620927 -1.5471471947 
0.31794909555 -0.1163853767 0.87455763507 0.46089962221 -0.19962554056 2.1416224469 0.075183752114 -0.094328125528 0.62163625399 
0.036885854083 -0.13750100933 0.94628696724 -0.095283460575 -0.18774105464 2.0276704784 -0.090046816315 0.0075765353457 -1.5842047571 
-0.2313043403 -0.13224304502 0.70252933322 -0.087090910663 -0.13507833257 0.78657513581 -0.34978488928 -0.31883751814 0.84258095348 
-0.16379264261 -0.29141483167 -1.5715140657 -0.89001902187 -0.063767752381 2.035003496 -0.23279531235 -0.12565568015 0.78395309012 
-0.1884653484 -0.13612875245 0.91597829227 -0.47790086129 0.025184871525 -1.3689296358 -0.77091662116 -0.29808611553 2.0073895257 
-0.35119261857 -0.13128325779 0.71663729703 -0.34047705982 -0.15330483441 0.79307963797 -0.32164013352 -0.12550474463 0.86883251491 
-0.63768057424 -0.18657453653 -1.372932583 -0.59116942152 -0.16251725258 0.82260516569 -0.56551861875 -0.29645919314 0.84421701864 
-0.70307906468 -0.2362944559 -1.4347651403 -0.77042671539 -0.23479700718 -1.1098616101 -0.60576696018 -0.14782231055 0.84147619065 
-0.63379808125 -0.16306234506 0.78437275426 -0.80360361651 -0.42703028044 -1.3385013905 -0.64585311576 -0.16694057262 0.80363971176 
-0.74904304788 -0.13216387088 0.64173955859 -0.94072461086 -0.1532203431 -0.88998758683 -0.7096899535 -0.073352859391 0.83311974497 
-0.97506209505 -0.18834023733 0.74990937226 -0.9555891982 -0.36255856147 0.43844584179 -1.0188834552 -0.25632120731 -0.83245355403 
-0.9296437082 -0.21723218468 0.63244007562 -0.87932449895 -0.097760008978 0.91037006997 -0.96706291725 -0.37862828954 -0.93179052291 
-0.89127112425 -0.20361002025 -0.74953822263 -1.03452663 -0.19859232547 0.58849058638 -1.1303515968 -0.17349192824 -0.79648323555 
-1.1981666125 -0.12973143441 -0.39802487686 -1.1840719627 -0.1861348156 -0.025595608004 -1.0624584026 -0.40954885382 -0.27221162441 
-1.256015522 -0.19015165846 0.12627633644 -1.0657530038 -0.10574817518 0.6290122527 -1.1471356057 -0.30495072128 0.70308572851 
-1.190622248 -0.21282603343 -0.50190524874 -1.3016340932 -0.24524327045 -0.48486485845 -1.2518309743 -0.2299592657 0.10443214687 
-1.2928890441 -0.21699140457 0.55958679094 -2.2133755176 -0.31668809817 0.37157061855 -2.1522131768 -0.55197169846 0.90948502813 
-1.1950896455 -0.20178209689 -0.5044914959 -1.2914249002 -0.20119318138 -0.14751708471 -1.2849305993 -0.15006246323 -0.028622489565 
-1.2816990595 -0.24111695994 0.093691957364 
radius 1 100 double
0.03 0.03 0.03 0.03 0.03 0.03 0.03 0.03 0.03 
0.03 0.03 0.03 0.03 0.03 0.03 0.03 0.03 0.03 
0.03 0.03 0.03 0.03 0.03 0.03 0.03 0.03 0.03 
0.03 0.03 0.03 0.03 0.03 0.03 0.03 0.03 0.03 
0.03 0.03 0.03 0.03 0.03 0.03 0.03 0.03 0.03 
0.03 0.03 0.03 0.03 0.03 0.03 0.03 0.03 0.03 
0.03 0.03 0.03 0.03 0.03 0.03 0.03 0.03 0.03 
0.03 0.03 0.03 0.03 0.03 0.03 0.03 0.03 0.03 
0.03 0.03 0.03 0.03 0.03 0.03 0.03 0.03 0.03 
0.03 0.03 0.03 0.03 0.03 0.03 0.03 0.03 0.03 
0.03 0.03 0.03 0.03 0.03 0.03 0.03 0.03 0.03 
0.03 
