# vtk DataFile Version 5.1
Generated by LIGGGHTS
ASCII
DATASET POLYDATA
POINTS 100 float
-0.00993143 0.289541 -0.575659 0.0829407 0.284081 -0.570524 0.0756518 0.796548 -0.575977 
-0.0572415 0.804044 -0.572819 -0.00422664 0.821702 -0.595344 0.215752 0.26654 -0.534308 
-0.185946 0.326378 -0.55472 0.136222 0.776482 -0.561476 -0.116913 0.814024 -0.565124 
0.212079 0.76248 -0.529401 0.271861 0.765646 -0.515424 -0.0615651 0.777367 -0.519251 
-0.170957 0.81096 -0.533875 -0.232353 0.841571 -0.535711 -0.28541 0.840561 -0.506335 
0.367906 0.241135 -0.440963 0.334379 0.739173 -0.45668 0.39007 0.771165 -0.455953 
-0.35945 0.865165 -0.462511 0.418051 0.274674 -0.43139 -0.397886 0.37437 -0.43677 
0.392491 0.724288 -0.408309 0.443329 0.236206 -0.378101 0.443992 0.750455 -0.390022 
-0.331896 0.82578 -0.418488 -0.392666 0.853793 -0.409962 0.502427 0.222886 -0.306294 
-0.463576 0.372365 -0.348681 0.471629 0.72838 -0.336895 -0.5087 0.934163 -0.331731 
-0.525234 0.391522 -0.260923 0.526511 1.20719 -0.219524 0.517103 0.682962 -0.199812 
0.56399 0.719698 -0.192337 -0.568 0.940898 -0.190666 -0.580066 0.429233 -0.155541 
0.580185 1.20764 -0.108916 0.586465 0.189653 -0.0549872 -0.585057 0.423857 -0.0866185 
-0.586006 0.93209 -0.0894435 0.592483 1.2052 -0.0497604 0.584496 0.682176 -0.0193911 
0.559979 1.16589 -0.0181714 -0.594696 0.441555 -0.0258027 0.575241 0.166097 0.0561269 
-0.585216 0.435401 0.0365679 0.564753 1.16447 0.0668038 -0.584115 0.947802 0.0685963 
0.580114 1.17669 0.123501 0.574493 0.163458 0.141765 -0.583204 0.459166 0.112594 
0.579638 0.669807 0.135296 0.531422 1.13531 0.130996 -0.56031 0.944512 0.127787 
-0.548423 0.435631 0.156565 0.544121 0.654259 0.219699 0.55028 1.15709 0.193881 
-0.508422 0.431482 0.210238 -0.514713 0.941393 0.213469 -0.5662 0.969895 0.184726 
0.466171 1.11222 0.222856 0.527861 0.153637 0.282685 0.508994 1.13515 0.258733 
-0.492386 0.952749 0.269845 0.460733 1.1088 0.283073 0.502934 0.650667 0.314524 
0.423786 1.09844 0.329203 -0.458316 0.957315 0.319029 0.468482 1.13359 0.349407 
-0.482747 0.510624 0.351037 0.445587 0.620195 0.373801 0.372523 1.08513 0.381677 
0.424269 1.11521 0.388844 -0.433451 0.485741 0.383537 0.401181 0.613174 0.425803 
-0.42045 0.978976 0.382041 0.379891 1.10952 0.436382 -0.362671 0.998292 0.447022 
0.256511 1.06513 0.468521 0.335043 1.10485 0.476208 0.313568 0.597656 0.495768 
-0.304773 0.997953 0.478037 -0.310472 0.523241 0.504025 -0.263141 1.03513 0.531397 
-0.079634 1.01526 0.528991 0.111043 1.03846 0.512572 0.180786 1.05946 0.51703 
0.251725 1.09317 0.523683 0.199863 0.0820664 0.552919 -0.240153 0.532642 0.53943 
-0.17486 0.536779 0.559118 0.105835 0.569766 0.570278 0.186038 0.57697 0.551493 
-0.204128 1.02508 0.538658 -0.14435 1.02254 0.552957 0.130793 1.06817 0.560957 
-0.0627552 0.0431069 0.576723 -0.0605855 0.53385 0.570174 -0.0872531 1.0508 0.57739 
-0.00431621 1.04991 0.576955 
VERTICES 101 100
OFFSETS vtktypeint64
0 1 2 3 4 5 6 7 8 
9 10 11 12 13 14 15 16 17 
18 19 20 21 22 23 24 25 26 
27 28 29 30 31 32 33 34 35 
36 37 38 39 40 41 42 43 44 
45 46 47 48 49 50 51 52 53 
54 55 56 57 58 59 60 61 62 
63 64 65 66 67 68 69 70 71 
72 73 74 75 76 77 78 79 80 
81 82 83 84 85 86 87 88 89 
90 91 92 93 94 95 96 97 98 
99 100 
CONNECTIVITY vtktypeint64
0 1 2 3 4 5 6 7 8 
9 10 11 12 13 14 15 16 17 
18 19 20 21 22 23 24 25 26 
27 28 29 30 31 32 33 34 35 
36 37 38 39 40 41 42 43 44 
45 46 47 48 49 50 51 52 53 
54 55 56 57 58 59 60 61 62 
63 64 65 66 67 68 69 70 71 
72 73 74 75 76 77 78 79 80 
81 82 83 84 85 86 87 88 89 
90 91 92 93 94 95 96 97 98 
99 
POINT_DATA 100
FIELD FieldData 4
id 1 100 int
37 51 76 36 97 61 88 20 12 
27 91 11 52 7 3 49 99 33 
57 90 38 55 41 23 9 65 22 
78 31 15 80 47 26 93 92 64 
8 98 1 56 63 13 79 19 66 
95 34 82 62 74 30 32 43 25 
35 45 50 14 2 87 28 86 16 
58 100 46 69 72 29 68 67 5 
18 24 4 40 10 89 96 17 60 
48 70 44 39 83 21 42 71 53 
6 54 85 81 75 84 94 59 73 
77 
type 1 100 int
1 1 1 1 1 1 1 1 1 
1 1 1 1 1 1 1 1 1 
1 1 1 1 1 1 1 1 1 
1 1 1 1 1 1 1 1 1 
1 1 1 1 1 1 1 1 1 
1 1 1 1 1 1 1 1 1 
1 1 1 1 1 1 1 1 1 
1 1 1 1 1 1 1 1 1 
1 1 1 1 1 1 1 1 1 
1 1 1 1 1 1 1 1 1 
1 1 1 1 1 1 1 1 1 
1 
v 3 100 double
2.3456021332 -0.064070399103 0.078364262254 2.3204442007 -0.46912596199 0.27834924657 2.0188067915 -0.5264354477 0.27410413739 
1.9947059318 -0.37126420484 -0.23248377483 1.9814556244 0.059002376075 0.13633536733 2.080943332 -0.41378746525 0.82535961007 
2.1540723708 -0.28904606345 -0.93667605628 1.9840187988 -0.42940502489 0.4861498107 2.0294987342 -0.249141325 -0.32109200151 
1.8429824475 -0.28068273525 0.73025752785 1.8523957879 -0.51840731814 0.92061119479 1.921049699 -0.32996392598 -0.21786028174 
1.63036713 -0.23454116514 -0.78508031014 1.8275500924 -0.15367228473 -0.81253674977 1.6975079597 -0.15240563137 -1.0173951415 
1.6271733631 -0.58421675987 1.4311557011 1.4599663282 -0.032220682323 0.83724122926 1.7389250572 -0.25100167833 1.2401299876 
1.6172341189 -0.44285045154 -1.2659329611 1.8545992347 -0.6912137746 1.4135807452 1.8159409155 -0.14659082146 -1.3977192315 
1.2557364937 -0.090979708438 1.5349995066 1.394573473 -0.33051486588 1.7194936779 1.3424932209 -0.28019208762 1.5788671253 
1.3075450246 -0.21456496737 -1.1324559936 1.4673090775 -0.27715586446 -1.2518618313 1.3817712907 -0.42274167294 1.8662421733 
1.3319650722 -0.29264604143 -1.9530563225 1.2250894737 -0.38870764576 1.6757094149 1.1930090269 -0.12608482676 -1.6086238447 
0.91888606459 -0.72597233441 -1.9672268089 0.81685021789 -0.17694505163 1.6420949083 0.8217152593 -0.33634735161 1.9636713456 
0.85185389982 -0.40218945062 2.1348865521 0.84554787221 -0.24037140404 -1.8253482218 0.9252885143 -0.17138073254 -2.0143750688 
0.21281165789 -0.27377392872 1.687923796 0.61654250491 -0.10229995456 2.2311132016 0.14518395143 -0.22166601627 -2.0125420912 
0.28184016552 -0.36616668834 -2.0499290864 0.16141558749 -0.39262143737 1.6742000507 0.19362775859 -0.48429977934 2.3390673426 
0.021556923148 -0.39838349005 1.5224950276 0.26680470118 -0.089906801039 -1.9035320608 -0.078179151499 -0.2180261288 2.7461403569 
-0.31165162308 -0.36390682906 -2.2883749203 -0.26470153575 -0.30619936603 1.6229987657 -0.40826144134 -0.20522468049 -2.0163891582 
-0.27527141069 -0.41558568088 1.6494395659 -0.44880522154 -0.82597459782 2.1967863842 -0.13079548352 -0.40639809975 -2.1733509271 
-0.35540592718 -0.55790555328 2.117563819 -0.47254682406 -0.11488157995 1.3819113908 -0.48384408049 -0.14171057298 -1.9440656854 
-0.35713547531 -0.1987759003 -2.4819968004 -0.79788925097 -0.40121847078 2.1733063734 -0.71987224175 -0.30020775863 1.735507372 
-1.029670527 -0.26066607971 -1.8101692673 -0.5567253658 -0.35719725943 -1.5775864485 -0.66160032581 -0.47844916702 -1.960093532 
-0.71807025384 -0.26450103028 1.3884931183 -0.89175051602 -0.39568199821 2.1320249455 -0.78530609273 -0.37797132142 1.5396231633 
-0.8192054479 -0.39432226022 -1.716844566 -0.94286140962 -0.20986433688 1.3882861026 -1.2091517593 -0.24674932437 1.4973690762 
-0.98553531416 -0.24305838222 1.3507435997 -0.94937718245 -0.35930745947 -1.479704123 -1.0798688361 -0.23329867363 1.4551450048 
-1.1835007705 -0.50271173511 -1.7351343787 -1.3536275693 -0.38274096231 1.6889507932 -1.1166541926 -0.13522435545 1.1516239334 
-1.029655084 -0.25053742088 1.4243045142 -1.5397875091 -0.17578559694 -1.7577654421 -1.7719640613 -0.19854974072 1.4016593409 
-1.2462666363 -0.23140117479 -1.4324022454 -1.3173772521 -0.17779309604 1.2495850475 -1.4961611334 -0.32966101955 -1.1720591547 
-1.5143368483 -0.29311340135 0.7305214184 -1.4304103499 -0.29133593205 1.0978508595 -1.7249223318 -0.50315728603 1.2199068242 
-1.5199829033 -0.3029564186 -1.1379808531 -1.8904223999 -0.034205214887 -1.2326070998 -1.833576598 -0.17108479049 -0.63685193914 
-1.7312949835 -0.21435799408 -0.079419915625 -1.8115046745 -0.29001383149 0.24906643562 -1.5858696167 -0.22948787299 0.76540474816 
-1.8365051089 -0.33631246548 0.81536100461 -2.1708631759 -0.26520517805 0.9668072624 -1.9782838898 -0.16089172423 -0.70457039777 
-2.2219484947 0.023201516544 -0.68252579437 -2.2688280764 -0.29219253909 0.23984815948 -2.0909873438 -0.60440773838 0.86145189921 
-1.8464486127 -0.33279190293 -0.64714921989 -1.8406729421 0.097487784172 -0.49872939554 -1.7510292783 -0.30120233276 0.20300351154 
-2.3206093163 -0.37246259556 -0.36731664293 -2.2092730165 -0.29528368812 -0.21481326972 -1.9520461581 -0.20260902866 -0.17298748018 
-1.702110254 -0.0030962730175 -0.090997952294 
radius 1 100 double
0.03 0.03 0.03 0.03 0.03 0.03 0.03 0.03 0.03 
0.03 0.03 0.03 0.03 0.03 0.03 0.03 0.03 0.03 
0.03 0.03 0.03 0.03 0.03 0.03 0.03 0.03 0.03 
0.03 0.03 0.03 0.03 0.03 0.03 0.03 0.03 0.03 
0.03 0.03 0.03 0.03 0.03 0.03 0.03 0.03 0.03 
0.03 0.03 0.03 0.03 0.03 0.03 0.03 0.03 0.03 
0.03 0.03 0.03 0.03 0.03 0.03 0.03 0.03 0.03 
0.03 0.03 0.03 0.03 0.03 0.03 0.03 0.03 0.03 
0.03 0.03 0.03 0.03 0.03 0.03 0.03 0.03 0.03 
0.03 0.03 0.03 0.03 0.03 0.03 0.03 0.03 0.03 
0.03 0.03 0.03 0.03 0.03 0.03 0.03 0.03 0.03 
0.03 
