# vtk DataFile Version 5.1
Generated by LIGGGHTS
ASCII
DATASET POLYDATA
POINTS 98 float
-0.745359 -0.991689 -0.906743 -0.730083 -0.864214 -0.853406 -0.670765 -0.757426 -0.759177 
0.0100053 0.297425 -0.581429 -0.0743663 0.313433 -0.575955 -0.00601218 0.800852 -0.580832 
0.0559704 0.799101 -0.578658 0.117403 0.804874 -0.581672 0.122474 0.274264 -0.562054 
0.186555 0.269797 -0.544777 -0.18839 0.342628 -0.563336 0.160326 0.763584 -0.540893 
-0.118553 0.824617 -0.569615 -0.240621 0.333661 -0.530267 0.227518 0.755852 -0.519902 
-0.0316319 0.776884 -0.53198 -0.176105 0.812691 -0.533531 -0.231024 0.836854 -0.533363 
0.350193 0.255738 -0.466762 0.296937 0.74207 -0.481314 -0.295248 0.848479 -0.506406 
-0.34622 0.377762 -0.482691 0.356381 0.732147 -0.437915 -0.345313 0.860099 -0.473151 
0.401607 0.226813 -0.409969 -0.391307 0.865169 -0.434769 -0.666741 -0.328903 -0.427809 
0.407614 0.722251 -0.389491 -0.336998 0.829634 -0.421615 0.449362 0.222682 -0.356331 
-0.423698 0.360442 -0.39673 0.448967 0.715979 -0.343153 -0.382983 0.837006 -0.380442 
-0.440069 0.872282 -0.38577 0.48688 0.705502 -0.290472 -0.426168 0.847293 -0.330815 
0.537009 0.238366 -0.271265 -0.473701 0.867428 -0.294002 -0.522688 0.900715 -0.281177 
-0.642462 -0.158085 -0.259262 0.507473 0.692246 -0.232458 0.567177 0.199867 -0.15174 
0.536824 0.685777 -0.173043 -0.515191 0.877833 -0.189856 -0.631293 -0.135267 -0.190331 
-0.528609 0.381483 -0.177742 -0.565533 0.913473 -0.166531 0.587346 0.201355 -0.0923157 
0.557777 0.683394 -0.0990536 -0.57451 0.413475 -0.113083 -0.5396 0.888327 -0.114747 
-0.617184 -0.0813503 -0.0857935 0.556499 0.658971 -0.026118 0.594419 0.704625 -0.0535537 
-0.578322 0.922547 -0.0799107 -0.584562 0.426128 -0.0402346 0.599577 0.197652 0.0131449 
-0.569364 0.918438 -0.0204463 -0.559846 0.918695 0.0391133 -0.573002 -0.0714949 0.071793 
0.580263 0.176563 0.123948 -0.543157 0.414519 0.0999157 -0.58648 0.460024 0.0993369 
0.515033 0.623283 0.180708 -0.577468 -0.0407488 0.152485 0.551094 0.179613 0.23284 
0.539498 0.651206 0.233313 -0.555003 -0.0282863 0.22082 -0.542363 0.461984 0.217231 
0.525162 0.158577 0.29532 -0.507085 0.458627 0.266182 -0.524139 -0.0103915 0.303027 
0.43146 0.0946157 0.340153 0.476117 0.630755 0.341792 0.468502 0.138686 0.36102 
-0.461991 0.471054 0.340526 -0.417376 0.472383 0.384378 -0.381969 0.487075 0.430733 
0.351926 0.598699 0.455726 -0.362992 -0.00146976 0.452943 0.380174 0.138998 0.461501 
0.295587 0.0933727 0.509844 -0.307346 0.495847 0.480209 0.289477 0.583122 0.492283 
-0.262527 0.526821 0.528795 0.168173 0.550261 0.519064 0.241311 0.584157 0.528437 
0.197433 0.0794255 0.549454 -0.204904 0.508118 0.530613 -0.141854 0.512238 0.542943 
0.101453 0.563412 0.570302 0.187313 0.589558 0.560166 -0.160355 0.0298889 0.563171 
-0.0191623 0.0455951 0.581014 0.0957191 0.0603202 0.574054 -0.0920626 0.53326 0.569224 
-0.0324497 0.538858 0.573698 0.027449 0.545383 0.576003 
VERTICES 99 98
OFFSETS vtktypeint64
0 1 2 3 4 5 6 7 8 
9 10 11 12 13 14 15 16 17 
18 19 20 21 22 23 24 25 26 
27 28 29 30 31 32 33 34 35 
36 37 38 39 40 41 42 43 44 
45 46 47 48 49 50 51 52 53 
54 55 56 57 58 59 60 61 62 
63 64 65 66 67 68 69 70 71 
72 73 74 75 76 77 78 79 80 
81 82 83 84 85 86 87 88 89 
90 91 92 93 94 95 96 97 98 

CONNECTIVITY vtktypeint64
0 1 2 3 4 5 6 7 8 
9 10 11 12 13 14 15 16 17 
18 19 20 21 22 23 24 25 26 
27 28 29 30 31 32 33 34 35 
36 37 38 39 40 41 42 43 44 
45 46 47 48 49 50 51 52 53 
54 55 56 57 58 59 60 61 62 
63 64 65 66 67 68 69 70 71 
72 73 74 75 76 77 78 79 80 
81 82 83 84 85 86 87 88 89 
90 91 92 93 94 95 96 97 
POINT_DATA 98
FIELD FieldData 4
id 1 98 int
86 74 66 67 46 21 84 83 4 
60 45 77 96 32 39 42 10 17 
85 73 5 13 75 18 54 29 98 
81 69 59 93 44 100 16 48 28 
6 50 62 22 89 53 40 43 41 
26 34 70 72 31 63 90 58 2 
79 23 24 8 47 49 68 55 33 
87 61 14 25 51 91 30 99 37 
95 82 35 27 20 76 56 88 19 
1 97 92 11 9 15 64 36 12 
57 65 38 78 80 52 7 3 
type 1 98 int
1 1 1 1 1 1 1 1 1 
1 1 1 1 1 1 1 1 1 
1 1 1 1 1 1 1 1 1 
1 1 1 1 1 1 1 1 1 
1 1 1 1 1 1 1 1 1 
1 1 1 1 1 1 1 1 1 
1 1 1 1 1 1 1 1 1 
1 1 1 1 1 1 1 1 1 
1 1 1 1 1 1 1 1 1 
1 1 1 1 1 1 1 1 1 
1 1 1 1 1 1 1 1 
v 3 98 double
-0.34761733349 -4.3125506862 -2.2642655265 -0.35754166992 -4.0505864146 -2.4304398492 -0.25780260374 -3.6747337108 -2.3129288917 
2.2771113992 -0.073286166133 0.22831244961 2.379157011 -0.35016800369 -0.36175525352 1.9041367903 -0.18483011615 0.24780491729 
1.9294972303 -0.30568874674 0.25502969003 1.9602010065 -0.46601179107 0.35397921259 2.2719843248 -0.6434656176 0.35315951846 
2.1480184024 -0.30831138099 0.87129035709 1.8393948492 -0.36008577427 -0.92142328036 1.8971112072 -0.18443821297 0.4811529283 
2.0890097619 -0.27657696701 -0.27985935121 2.093294814 -0.17074924233 -0.96697982292 1.8799223862 -0.33515934065 0.78352489373 
1.7225578909 -0.43169484995 0.12536806932 1.6814730252 -0.26240266159 -0.76547546288 1.684844687 -0.25501988642 -0.72422692407 
1.8573754612 -0.31440055632 1.2736069407 1.602592631 -0.15510496201 1.110813289 1.8371330461 -0.077748084784 -0.76725579315 
1.7727508438 -0.57430319295 -1.2154581078 1.5465820859 -0.38057497776 1.2492868445 1.5267868879 -0.12572967866 -1.3043040198 
1.4482641295 -0.049077385045 1.7031584638 1.6545345429 -0.31560163793 -1.2919089446 -0.29807269166 -2.3968250724 -2.1788426723 
1.2771582473 -0.21100683965 1.5635694137 1.2495975284 -0.12289278965 -1.2796545941 1.5193561493 -0.35007027576 1.7904744687 
1.551008333 -0.47023837079 -1.8405681246 1.2645350041 -0.30673433808 1.5896994572 1.2862525797 -0.19644060553 -1.0967080905 
1.4025505166 -0.42698487405 -1.5430877038 0.95285039262 -0.017691205954 1.8484562021 1.2146325767 -0.36646338792 -1.4312630717 
0.90704698391 -0.044278019637 2.0667509512 0.96112500602 -0.19338340522 -1.6875249398 0.75689610273 -0.39619668984 -1.7254442288 
-0.33436420595 -1.4253059984 -2.2802947797 0.87666588501 -0.38976326709 1.8715392662 0.58438995044 0.094733910263 2.1603069077 
0.77017359422 -0.38375773982 1.9678120052 0.64532783156 -0.23357941379 -1.8455138228 -0.43951777773 -1.1652208445 -2.2808416539 
0.64810873793 -0.23505363399 -2.1911465441 0.56782908609 -0.14646353464 -1.986575837 0.39599400461 -0.30964040234 2.3594266534 
0.31198119627 -0.31712916161 1.8831803838 0.57218341172 -0.58271482694 -2.3150784544 0.25486861254 -0.31046542145 -1.8323384249 
-0.31999506672 -0.73278933823 -2.1654213295 0.22927660854 -0.3834612415 2.0941625886 0.25337331314 -0.41291431961 2.0600953476 
0.1840069479 -0.25856672719 -1.973065046 0.064922635334 -0.24456010228 -2.0903317594 -0.33906506467 -0.083490165511 2.0775504235 
0.046031525311 -0.22968129597 -1.9166401545 -0.24180437772 -0.32304269789 -1.8190277206 -0.43662964232 -0.21013822313 -2.2170294123 
-0.35076365579 -0.61618845202 2.0833650578 -0.16546361401 -0.43448157869 -2.0711322927 -0.22298937365 -0.41200795984 -2.1825733544 
-0.86310637115 -0.37543250556 1.8038592268 -0.71492083305 -0.78559190939 -2.0126901087 -0.83014151078 -0.29151677933 1.9989873064 
-0.92891547242 -0.65015922626 2.084799931 -1.1097350682 -0.32030457034 -2.1036566647 -0.9110546204 -0.27606339666 -2.0232449294 
-1.1343336084 0.13291408129 1.7688324728 -0.85458301273 -0.35646508079 -2.1339822625 -0.94021633506 0.13876501856 -2.0885422994 
-1.3315339155 -0.31596137306 1.8463288686 -1.3080559479 -0.15650771019 1.8796588453 -1.3755557363 -0.32555206604 1.8493501638 
-1.1877311636 -0.46043514814 -1.6787293991 -1.3164783701 -0.29059058509 -1.5582269733 -1.6165051503 -0.32668167627 -1.2443141961 
-1.7169914312 -0.34517992373 1.3294026302 -1.8561568933 -0.42069962134 -1.4014924477 -1.7281024612 -0.30073046039 1.2476940394 
-2.150413386 -0.11828740759 0.79577019831 -1.7022510708 -0.2409719284 -1.2310360415 -1.7075790252 -0.11004552705 0.98255652273 
-1.9071869233 -0.41088392485 -0.8587669732 -1.8600404608 -0.3515272726 0.71705197413 -1.8237509596 -0.17930001486 0.84443095755 
-2.1541126617 -0.54716122256 0.867992907 -1.8678015392 -0.3864901484 -0.81927842521 -1.9790863781 -0.12605855214 -0.38648124632 
-1.9146368474 -0.15962877752 0.3928739224 -1.9494048604 -0.39859512366 0.80368978974 -2.1336308404 -0.069241028193 -0.87825374844 
-2.3088509746 -0.15299761245 -0.31567805368 -2.2660606364 -0.20941561489 0.44228284271 -1.9397088131 -0.34238094142 -0.24340786518 
-1.9419725506 -0.19187419127 -0.18765807109 -1.9031430945 -0.37035605047 0.19196018417 
radius 1 98 double
0.03 0.03 0.03 0.03 0.03 0.03 0.03 0.03 0.03 
0.03 0.03 0.03 0.03 0.03 0.03 0.03 0.03 0.03 
0.03 0.03 0.03 0.03 0.03 0.03 0.03 0.03 0.03 
0.03 0.03 0.03 0.03 0.03 0.03 0.03 0.03 0.03 
0.03 0.03 0.03 0.03 0.03 0.03 0.03 0.03 0.03 
0.03 0.03 0.03 0.03 0.03 0.03 0.03 0.03 0.03 
0.03 0.03 0.03 0.03 0.03 0.03 0.03 0.03 0.03 
0.03 0.03 0.03 0.03 0.03 0.03 0.03 0.03 0.03 
0.03 0.03 0.03 0.03 0.03 0.03 0.03 0.03 0.03 
0.03 0.03 0.03 0.03 0.03 0.03 0.03 0.03 0.03 
0.03 0.03 0.03 0.03 0.03 0.03 0.03 0.03 
