# vtk DataFile Version 5.1
Generated by LIGGGHTS
ASCII
DATASET POLYDATA
POINTS 100 float
-0.00910186 1.82994 -0.594293 0.0727957 1.81488 -0.582206 -0.180851 1.87056 -0.576849 
0.117955 1.77498 -0.54361 -0.0111316 1.79117 -0.548501 0.0473542 1.78116 -0.5396 
-0.134757 1.83384 -0.5656 -0.0777108 1.81525 -0.566088 0.198257 1.76762 -0.526313 
-0.119464 1.80139 -0.517506 -0.0610475 1.78787 -0.515371 -0.197412 1.83014 -0.535725 
0.060384 1.76835 -0.482454 0.145827 1.75512 -0.494312 0.255123 1.75385 -0.496978 
-0.17193 1.80336 -0.488466 0.187088 1.80327 -0.478462 0.298983 1.80007 -0.474054 
-0.279749 1.83811 -0.484947 0.0164889 1.81389 -0.499904 -0.191884 1.85965 -0.482467 
-0.133132 1.85694 -0.499408 -0.0745845 1.84383 -0.498526 0.200712 1.74527 -0.470664 
0.310709 1.74314 -0.459156 -0.0918084 1.79583 -0.464449 -0.0253184 1.78591 -0.467211 
0.128247 1.80356 -0.463575 -0.227518 1.81334 -0.462834 0.273881 1.72773 -0.414367 
0.153728 1.75572 -0.434824 0.251794 1.77672 -0.441435 -0.143333 1.80717 -0.435862 
0.011729 1.80326 -0.423316 0.0852621 1.77895 -0.428895 -0.295365 1.82586 -0.427122 
-0.0549811 1.81578 -0.42099 -0.352732 1.85589 -0.444278 -0.244511 1.87048 -0.447787 
-0.144635 1.8669 -0.441372 0.0956904 1.83799 -0.426778 0.209955 1.74595 -0.411378 
0.364812 1.72836 -0.406122 -0.241195 1.82339 -0.401442 -0.181828 1.83016 -0.395992 
-0.109527 1.83698 -0.396258 -0.38138 1.85001 -0.386729 -0.323827 1.86589 -0.392662 
-0.263648 1.88059 -0.391626 0.317369 1.72004 -0.370348 0.420974 1.72932 -0.371204 
0.262828 1.74218 -0.356873 0.356975 1.76252 -0.355286 -0.285156 1.83571 -0.358118 
-0.435179 1.87676 -0.383179 0.376802 1.70933 -0.335863 0.472016 1.73343 -0.329421 
0.412801 1.7561 -0.318137 -0.338487 1.84289 -0.330027 -0.229908 1.85665 -0.347667 
-0.4532 1.87363 -0.325835 -0.388048 1.89999 -0.354216 0.431873 1.70357 -0.296295 
-0.397679 1.85004 -0.321371 -0.292272 1.86879 -0.300607 -0.359101 1.89193 -0.302286 
-0.458495 1.86304 -0.267007 -0.416908 1.90141 -0.286966 -0.377761 1.94687 -0.287025 
0.410284 1.69609 -0.240815 0.469557 1.69645 -0.250137 -0.386658 1.85654 -0.26106 
-0.508225 1.89073 -0.248029 -0.326562 1.8825 -0.25277 -0.454315 1.91314 -0.234208 
-0.377159 1.91083 -0.237366 0.505094 1.68994 -0.202234 -0.423381 1.86626 -0.213109 
0.464177 1.67558 -0.159915 -0.482502 1.87471 -0.196247 -0.382062 1.89435 -0.179884 
-0.439543 1.91096 -0.175276 0.533229 1.68587 -0.149368 -0.526346 1.89382 -0.159184 
-0.473992 1.88218 -0.132286 -0.417905 1.8999 -0.120427 0.54522 1.67927 -0.0899553 
-0.522879 1.89227 -0.097758 -0.469508 1.89085 -0.0703813 -0.521848 1.90096 -0.0382745 
0.487624 1.64886 0.00656728 0.54635 1.66002 -0.000817421 0.558453 1.6652 0.0592098 
0.539226 1.64721 0.113125 0.483626 1.63093 0.128731 0.500655 1.62637 0.187491 
0.482462 1.6201 0.244322 0.446424 1.60886 0.292633 0.460795 1.63187 0.351286 
0.315198 1.63898 0.516766 
VERTICES 101 100
OFFSETS vtktypeint64
0 1 2 3 4 5 6 7 8 
9 10 11 12 13 14 15 16 17 
18 19 20 21 22 23 24 25 26 
27 28 29 30 31 32 33 34 35 
36 37 38 39 40 41 42 43 44 
45 46 47 48 49 50 51 52 53 
54 55 56 57 58 59 60 61 62 
63 64 65 66 67 68 69 70 71 
72 73 74 75 76 77 78 79 80 
81 82 83 84 85 86 87 88 89 
90 91 92 93 94 95 96 97 98 
99 100 
CONNECTIVITY vtktypeint64
0 1 2 3 4 5 6 7 8 
9 10 11 12 13 14 15 16 17 
18 19 20 21 22 23 24 25 26 
27 28 29 30 31 32 33 34 35 
36 37 38 39 40 41 42 43 44 
45 46 47 48 49 50 51 52 53 
54 55 56 57 58 59 60 61 62 
63 64 65 66 67 68 69 70 71 
72 73 74 75 76 77 78 79 80 
81 82 83 84 85 86 87 88 89 
90 91 92 93 94 95 96 97 98 
99 
POINT_DATA 100
FIELD FieldData 4
id 1 100 int
76 31 2 32 20 23 56 7 45 
9 33 72 93 46 60 82 59 54 
44 99 15 3 12 4 24 97 27 
67 92 68 85 53 52 55 26 40 
91 48 65 11 13 6 35 89 57 
36 81 77 87 14 95 70 30 58 
10 1 80 19 39 25 17 21 64 
73 75 84 18 96 83 78 38 42 
28 69 5 100 51 29 88 50 43 
16 37 79 63 62 61 47 34 8 
49 90 98 41 22 66 74 86 71 
94 
type 1 100 int
1 1 1 1 1 1 1 1 1 
1 1 1 1 1 1 1 1 1 
1 1 1 1 1 1 1 1 1 
1 1 1 1 1 1 1 1 1 
1 1 1 1 1 1 1 1 1 
1 1 1 1 1 1 1 1 1 
1 1 1 1 1 1 1 1 1 
1 1 1 1 1 1 1 1 1 
1 1 1 1 1 1 1 1 1 
1 1 1 1 1 1 1 1 1 
1 1 1 1 1 1 1 1 1 
1 
v 3 100 double
0.42703012856 -0.085495078805 0.089897584514 0.82290517063 -0.084076974066 0.068269031833 0.53815217103 -0.16233619071 -0.17081570803 
0.6550882389 -0.18306524635 0.27597785528 0.55163857143 -0.097464494939 0.093345673612 0.5817878412 -0.045537932774 -0.045330134338 
0.5274423429 -0.13384986824 -0.032982804872 0.53393940037 -0.10494983234 -0.05669955253 0.66608894656 -0.1389293303 0.29604467133 
0.46370996122 -0.10391980355 0.0073965494964 0.46826579112 -0.091095312433 -0.026789377549 0.39209961718 -0.076087224025 -0.1443851727 
0.63775701932 -0.12738935988 -0.076667434782 0.78199529389 -0.10780637858 0.24469542674 0.73787254627 -0.17188978447 0.39671746549 
0.38291717571 -0.078081494803 -0.14047845461 0.82204339197 0.031314209253 0.47976146249 0.71571635156 -0.21346268239 0.30748408942 
0.53150926171 -0.083756796243 -0.24200634964 0.61219277533 -0.069737156337 -0.00089920908429 0.45350595143 -0.041598971198 -0.16037623154 
0.57086953041 -0.057032740156 -0.056383471822 0.56903803061 -0.07603655381 0.0031547618253 0.67875125514 -0.086571789133 0.30852016368 
0.7532959538 -0.14324645803 0.54725912989 0.50936795001 -0.074569840669 -0.0096896457414 0.55601022912 -0.090693943411 -0.088953490934 
0.77261442027 -0.1129186374 0.2451107581 0.39782544254 -0.067790477266 -0.15225640112 0.72645989445 -0.15162116735 0.52192770551 
0.63454332994 -0.11098314471 0.27177424201 0.78675032339 -0.16094547297 0.43421895458 0.42380237021 -0.072607150063 -0.16183563477 
0.80510055323 -0.37007639366 -0.19785549843 0.59920730868 -0.19789244583 -0.045279120476 0.22104719742 -0.057084103693 -0.26397834877 
0.40754498278 -0.020787140915 -0.054629972208 0.18494713515 0.010712666853 -0.28930401255 0.46203381194 0.0074771208547 -0.26309575566 
0.53062940911 -0.062388892008 -0.063228325074 0.62827269043 -0.21155963569 0.20538307767 0.67399428254 -0.11212302532 0.31535293449 
0.86583165276 -0.15374721627 0.59486527547 0.19519032559 -0.051498827424 -0.20815527105 0.21859433886 -0.18442747454 -0.29615164374 
0.51360596686 -0.15723370519 -0.1704300255 0.19210653864 -0.018131368783 -0.20948221849 0.19604541486 -0.05901299529 -0.28193522238 
0.11405280085 -0.18492635697 -0.33793281715 0.77370980397 -0.17039373391 0.46885434311 0.60248700214 -0.1755345377 0.80788299052 
0.50778923919 -0.81530973624 0.6958111636 0.7450249667 -0.18505271281 0.58574118516 0.11473285648 -0.11088070531 -0.23561654709 
0.16567907691 -0.055743849364 -0.1668704646 0.59119404338 -0.16451739349 0.79915887626 0.70154067346 -0.22067804104 0.96185389569 
0.58553040543 -0.18057066929 0.80899975543 0.17236866986 -0.046840556081 -0.23176280348 0.14050174181 -0.14653925763 -0.30163059777 
0.12569562002 -0.032674644055 -0.16904598416 0.16652629151 -0.038047760625 -0.18328907572 0.56218307245 -0.17688936316 0.83720934134 
0.15909008876 -0.04068900197 -0.19528510436 0.070183248154 -0.093498148566 -0.1842501642 0.12957225902 -0.096828361546 -0.17202881682 
0.12213153516 -0.035379288472 -0.17010844253 0.12064445302 -0.032769493436 -0.16484328372 0.20421538065 -0.1057112118 -0.045546509737 
0.47062536494 -0.19649963622 0.80322155224 0.48829950396 -0.14360278304 0.90592703908 0.11153784793 -0.034904909599 -0.15719786971 
0.11520623528 -0.061459682905 -0.14752034266 0.09993269121 -0.031223004984 -0.14012217211 0.11054962794 -0.048008348205 -0.14600361959 
0.098800900503 -0.054086523895 -0.10755755911 0.29081227527 -0.19965753472 1.044953911 0.12574504148 -0.030288907716 -0.12912308012 
0.33285095273 -0.21306264589 1.1269987343 0.06156333565 -0.022084234989 -0.10963833149 0.076365679798 -6.499710877e-05 -0.093694559739 
0.056674130667 -0.018078538283 -0.10750033557 0.11280739815 -0.23572740781 1.1497724511 0.052873828407 -0.02320251667 -0.11075634189 
0.023797655647 -0.0084041486367 -0.04533760316 0.041221940068 -0.012645679044 -0.094017025501 0.42088626841 0.022495860713 1.1544387561 
-0.0080465325705 -0.0064185525464 -0.049426307059 -0.019348407336 -0.014852694203 -0.027829233372 0.041525630183 -0.010278575442 -0.038400409951 
0.012355284198 -0.19424680526 1.3443589903 0.0066562813261 -0.11482082481 1.3634013226 -0.32368986838 -0.33851493215 1.4667511692 
-0.17677030406 -0.2321061888 1.5551233898 -0.23933118581 -0.19897519974 1.3700194645 -0.47276343575 -0.19396845408 1.4839151359 
-0.7119305775 -0.34003061479 1.3642479072 -0.85561147779 -0.18326977432 1.2911054019 -1.1648568997 -0.31159398602 1.5098813114 
-1.5000010504 -0.32578973369 1.135073328 
radius 1 100 double
0.03 0.03 0.03 0.03 0.03 0.03 0.03 0.03 0.03 
0.03 0.03 0.03 0.03 0.03 0.03 0.03 0.03 0.03 
0.03 0.03 0.03 0.03 0.03 0.03 0.03 0.03 0.03 
0.03 0.03 0.03 0.03 0.03 0.03 0.03 0.03 0.03 
0.03 0.03 0.03 0.03 0.03 0.03 0.03 0.03 0.03 
0.03 0.03 0.03 0.03 0.03 0.03 0.03 0.03 0.03 
0.03 0.03 0.03 0.03 0.03 0.03 0.03 0.03 0.03 
0.03 0.03 0.03 0.03 0.03 0.03 0.03 0.03 0.03 
0.03 0.03 0.03 0.03 0.03 0.03 0.03 0.03 0.03 
0.03 0.03 0.03 0.03 0.03 0.03 0.03 0.03 0.03 
0.03 0.03 0.03 0.03 0.03 0.03 0.03 0.03 0.03 
0.03 
