# vtk DataFile Version 5.1
Generated by LIGGGHTS
ASCII
DATASET POLYDATA
POINTS 100 float
0.0537323 0.787602 -0.568824 -0.0662372 0.818155 -0.576074 -0.00881203 0.79773 -0.578728 
0.0431364 1.3019 -0.576607 -0.196898 0.333532 -0.553387 0.242882 0.314897 -0.555373 
-0.00443886 1.2834 -0.543773 0.0882144 1.27516 -0.547397 0.148341 1.27389 -0.550261 
-0.08179 1.31139 -0.567125 0.225731 0.768653 -0.529601 0.29198 0.77442 -0.514926 
-0.217277 0.832326 -0.537525 -0.0576913 1.28109 -0.515694 0.041781 1.26398 -0.510804 
0.209356 1.26271 -0.52492 -0.238406 1.33984 -0.526815 0.347384 0.779736 -0.487088 
-0.292824 0.838527 -0.496372 0.160095 1.24814 -0.492176 0.288647 1.24544 -0.482124 
-0.346147 0.349334 -0.46481 0.231122 1.23688 -0.465591 0.34284 1.24503 -0.45197 
-0.227899 1.31101 -0.475242 0.442668 0.256358 -0.400992 -0.406545 0.887743 -0.434757 
0.292817 1.22531 -0.424644 -0.323424 1.33478 -0.437576 0.345951 1.21917 -0.397055 
0.404592 1.23254 -0.399321 0.488411 0.760821 -0.350991 0.391641 1.20802 -0.345536 
0.449309 1.21185 -0.329351 -0.488487 0.399251 -0.338995 -0.461813 0.866888 -0.319156 
0.481533 1.20159 -0.279351 -0.46227 0.358155 -0.303512 0.505666 0.706894 -0.260397 
-0.510504 0.893476 -0.296052 0.468248 1.18494 -0.223111 -0.498218 0.872372 -0.240747 
0.523532 1.19617 -0.202679 0.572993 0.710603 -0.155834 -0.537605 0.387227 -0.168019 
-0.522506 0.880764 -0.170742 -0.570887 0.916003 -0.157069 0.552651 1.1962 -0.15014 
0.577579 0.687636 -0.0608308 -0.548429 0.896595 -0.0980507 0.531093 1.16317 -0.0717708 
0.578723 1.19862 -0.0804239 -0.592321 0.447895 -0.067982 0.599464 0.701688 0.00642286 
0.550853 1.15781 -0.0124599 -0.588521 0.935146 -0.0197762 -0.545471 0.904281 0.022607 
0.54761 1.152 0.0484989 -0.598858 0.467326 0.029737 0.589463 0.699136 0.0941508 
0.577716 1.17322 0.097355 -0.580448 0.958297 0.115718 0.563274 1.16216 0.15535 
-0.584669 0.465491 0.122305 -0.555966 0.450331 0.173547 -0.539973 0.93455 0.159193 
0.493615 0.613508 0.227289 0.534184 0.653621 0.252339 0.512442 1.13255 0.218945 
-0.545383 0.97985 0.237816 -0.496662 0.949847 0.258277 0.459374 1.10976 0.289586 
-0.506664 0.984177 0.307404 0.416537 1.09554 0.335111 0.470815 0.627492 0.342861 
-0.454567 0.955568 0.318738 0.460874 1.12939 0.357267 0.428686 0.615799 0.39614 
-0.420009 0.967627 0.369077 -0.471044 0.997545 0.358859 -0.464534 0.495997 0.367867 
0.414016 1.11341 0.401861 0.367626 0.608537 0.450427 -0.396818 0.990353 0.419862 
-0.393201 0.508294 0.443845 -0.340259 0.980997 0.437661 0.287696 1.07925 0.475014 
0.351324 1.11569 0.468956 0.301602 0.58999 0.497775 -0.281589 0.994562 0.486602 
-0.257676 0.529229 0.528936 0.247309 0.588267 0.525597 0.260917 1.10257 0.525488 
0.156919 0.562624 0.55139 -0.181035 1.01648 0.537119 0.205558 1.09598 0.550924 
-0.0250122 0.561558 0.588036 0.0624182 0.564965 0.579189 -0.126865 1.03579 0.565996 
0.0536695 1.0857 0.592794 
VERTICES 101 100
OFFSETS vtktypeint64
0 1 2 3 4 5 6 7 8 
9 10 11 12 13 14 15 16 17 
18 19 20 21 22 23 24 25 26 
27 28 29 30 31 32 33 34 35 
36 37 38 39 40 41 42 43 44 
45 46 47 48 49 50 51 52 53 
54 55 56 57 58 59 60 61 62 
63 64 65 66 67 68 69 70 71 
72 73 74 75 76 77 78 79 80 
81 82 83 84 85 86 87 88 89 
90 91 92 93 94 95 96 97 98 
99 100 
CONNECTIVITY vtktypeint64
0 1 2 3 4 5 6 7 8 
9 10 11 12 13 14 15 16 17 
18 19 20 21 22 23 24 25 26 
27 28 29 30 31 32 33 34 35 
36 37 38 39 40 41 42 43 44 
45 46 47 48 49 50 51 52 53 
54 55 56 57 58 59 60 61 62 
63 64 65 66 67 68 69 70 71 
72 73 74 75 76 77 78 79 80 
81 82 83 84 85 86 87 88 89 
90 91 92 93 94 95 96 97 98 
99 
POINT_DATA 100
FIELD FieldData 4
id 1 100 int
4 46 67 50 86 71 62 28 16 
34 60 85 45 79 43 29 8 54 
32 100 18 74 69 10 63 94 13 
5 47 17 42 59 96 21 66 93 
83 98 6 26 84 31 77 53 22 
23 55 73 70 99 39 75 41 24 
44 33 91 81 90 68 48 27 89 
49 61 20 14 35 40 76 97 72 
36 2 30 11 58 95 52 12 51 
87 19 7 37 9 82 25 1 3 
88 64 56 80 57 92 38 78 65 
15 
type 1 100 int
1 1 1 1 1 1 1 1 1 
1 1 1 1 1 1 1 1 1 
1 1 1 1 1 1 1 1 1 
1 1 1 1 1 1 1 1 1 
1 1 1 1 1 1 1 1 1 
1 1 1 1 1 1 1 1 1 
1 1 1 1 1 1 1 1 1 
1 1 1 1 1 1 1 1 1 
1 1 1 1 1 1 1 1 1 
1 1 1 1 1 1 1 1 1 
1 1 1 1 1 1 1 1 1 
1 
v 3 100 double
2.0808022988 -0.5198191934 0.35480384832 2.0832475504 -0.42974953795 -0.27189926245 2.0574162429 -0.087336816637 0.25232177487 
1.6288784226 -0.37089978101 0.29671999386 2.193534389 -0.25347415981 -0.98840562494 2.0713273551 -0.21984964198 0.84556128364 
1.4042707354 -0.20336751827 0.075182317198 1.5834134746 -0.32485355614 0.36029658454 1.6399712324 -0.10748514753 0.54115743843 
1.6449166426 -0.4677354497 -0.1029382862 2.1294497456 -0.39062260446 0.7608898678 1.711057037 -0.061675177864 1.2102047609 
2.0475959869 -0.22517464695 -0.97912461079 1.2688454923 -0.20537406997 -0.16977055281 1.3513567258 -0.20576515624 0.14540627851 
1.5898139833 -0.28009005415 0.66008338843 1.4445965107 -0.32865018944 -0.54137108554 1.7421236087 -0.33837859024 1.2308343743 
1.9851434686 -0.18375652739 -1.0120306396 1.4116419192 -0.17034515629 0.39682757555 1.5067812921 -0.17525948963 0.78763285565 
1.8440683706 -0.51096177228 -1.4229780313 1.4683305312 -0.26437356242 0.62646400807 1.3422200119 -0.19379934078 0.94899197486 
1.4405100863 -0.29651189693 -0.52187774806 1.5294799602 -0.042020825594 1.7351347412 1.6703904894 0.046823549926 -1.4171955223 
1.2635415118 -0.19484173258 0.82758796238 1.1608643949 -0.17878517399 -1.0501511884 1.2132688232 -0.25349698128 0.94858877636 
1.1888347013 -0.052908817491 1.1947976039 1.3825324545 -0.23228696652 1.7513668241 0.95565864 -0.21199529691 1.1074217751 
0.90811652913 -0.30211809437 1.2644228904 1.3866855907 -0.15202918773 -2.0086583017 1.1383334932 -0.20412810399 -1.8267429373 
0.71476935759 -0.18122912774 1.4905333717 1.3047184705 -0.25862085983 -2.0390640493 0.99159318635 -0.19170651563 1.960712252 
1.2406533376 -0.08838839079 -1.6838487026 0.66296154005 -0.24786234554 1.467715472 0.80395630682 -0.35430878491 -1.5624436606 
0.62331124182 -0.31662391662 1.6090441139 0.71026883459 0.15948307061 2.1975897117 0.56506001266 -0.14383034727 -2.1121501242 
0.57774828964 -0.28882052033 -1.8528020081 0.59574143645 -0.15964721369 -1.799053468 0.45626465222 -0.053383415597 1.7281071299 
0.33841398629 -0.25787998164 1.9853743568 0.33441041598 -0.3770439436 -1.8340202592 0.50627985453 -0.21113541278 1.5918041053 
0.46518915237 -0.10391245896 1.8048664746 0.41380791745 -0.42425503014 -2.1192664317 -0.39915130757 -0.13197039146 2.1974163145 
-0.093352246245 -0.080425021869 1.639525361 0.20614686269 -0.28575385862 -2.0556740832 0.028218803322 -0.34875714631 -1.8392896175 
0.16319405704 -0.035175118784 1.7376788666 -0.23655686636 -0.54082234108 -2.1698545854 -0.2926534266 -0.41546185504 2.0608794267 
-0.046425240469 -0.15276285971 2.03145706 -0.48937294211 -0.20607831622 -1.9538584668 -0.33347729856 0.0096630671682 1.7961220267 
-0.37722745653 -0.17898577686 -2.3450693835 -0.85917069657 -0.30027581096 -1.9483686014 -0.41332826874 -0.0055669374579 -1.87164524 
-0.95797976945 -0.43279612131 2.1227608201 -0.91361534642 -0.55059189078 2.2209594444 -0.58510403678 -0.217070054 1.6477204899 
-0.97860381042 -0.12369616288 -1.7318569977 -0.95355525078 -0.060253154984 -1.512266819 -0.95086971512 -0.24935955214 1.5922728146 
-1.1758945248 -0.19244320269 -1.3772073379 -1.1879072718 -0.33514721773 1.4754189501 -1.1889761523 -0.25448557931 1.7582748831 
-1.2259906538 -0.21577772339 -1.2406634905 -1.1303149682 -0.30571407746 1.3816788245 -1.5650039844 -0.5256981224 1.6804323501 
-1.2823624714 -0.17962359676 -1.4302535818 -1.2688469947 -0.11491185225 -1.3662928138 -1.5148417919 -0.34293339094 -1.7261393411 
-1.2824958414 -0.013070353393 1.4371549922 -1.7053722765 -0.45433586881 1.2304274437 -1.3350304547 -0.47345857913 -1.2224766208 
-1.8852024516 -0.31242245357 -1.3980496229 -1.32643496 -0.33066942782 -1.1811746755 -1.3987546186 -0.1028283861 0.77787529747 
-1.3695316596 -0.34526790626 1.1831591906 -1.734759808 -0.16660800028 0.9299501811 -1.8302296026 -0.24785059168 -1.051622508 
-2.1376563394 -0.45557584583 -0.82010733648 -1.8089774755 -0.47269060796 0.67013127425 -1.8054934575 -0.39851757339 0.75305138744 
-2.1891448811 -0.1982351384 0.43535364462 -1.7338207194 -0.46099450393 -0.79734039983 -1.8184728118 -0.45843360519 0.68808393088 
-2.3033812857 -0.089908887422 -0.19136950348 -2.1856057449 -0.37506113999 0.38105077477 -2.0445406616 -0.46503874906 -0.36342121385 
-1.9273149698 -0.50941069879 0.13810759586 
radius 1 100 double
0.03 0.03 0.03 0.03 0.03 0.03 0.03 0.03 0.03 
0.03 0.03 0.03 0.03 0.03 0.03 0.03 0.03 0.03 
0.03 0.03 0.03 0.03 0.03 0.03 0.03 0.03 0.03 
0.03 0.03 0.03 0.03 0.03 0.03 0.03 0.03 0.03 
0.03 0.03 0.03 0.03 0.03 0.03 0.03 0.03 0.03 
0.03 0.03 0.03 0.03 0.03 0.03 0.03 0.03 0.03 
0.03 0.03 0.03 0.03 0.03 0.03 0.03 0.03 0.03 
0.03 0.03 0.03 0.03 0.03 0.03 0.03 0.03 0.03 
0.03 0.03 0.03 0.03 0.03 0.03 0.03 0.03 0.03 
0.03 0.03 0.03 0.03 0.03 0.03 0.03 0.03 0.03 
0.03 0.03 0.03 0.03 0.03 0.03 0.03 0.03 0.03 
0.03 
