# vtk DataFile Version 5.1
Generated by LIGGGHTS
ASCII
DATASET POLYDATA
POINTS 100 float
-0.00819461 1.30272 -0.577478 0.164558 1.27844 -0.549023 -0.11056 1.31396 -0.561881 
-0.179907 1.32575 -0.54831 -0.259809 0.843555 -0.522274 -0.193471 0.829031 -0.542881 
0.0120849 1.27481 -0.528361 0.223221 1.26927 -0.526748 -0.234744 1.33421 -0.524376 
-0.292556 1.36534 -0.514873 0.289564 1.25351 -0.489221 -0.269339 1.3258 -0.476068 
0.395283 1.25166 -0.429315 -0.32198 1.33801 -0.448384 -0.401871 1.37123 -0.424367 
0.438015 1.21736 -0.347401 -0.378963 1.34033 -0.378316 -0.43443 1.36924 -0.372108 
0.493874 1.2458 -0.332038 -0.489876 1.40006 -0.327866 0.511159 1.2106 -0.250362 
-0.456846 1.36225 -0.293487 -0.503273 1.38295 -0.254101 -0.543727 1.4263 -0.244909 
0.560015 1.22362 -0.198586 -0.534511 1.39786 -0.192889 0.539854 1.17193 -0.101955 
0.586028 1.20878 -0.0914795 -0.572207 1.42031 -0.14929 -0.53381 1.38997 -0.114422 
-0.579824 0.925292 -0.0944147 0.59069 1.19348 -0.024952 -0.560736 1.41461 -0.0541235 
0.492142 1.65407 -0.0239676 0.538547 1.65374 0.0178498 -0.597498 0.951376 0.0138101 
-0.521099 1.40366 0.0141993 -0.572992 1.43144 0.025869 0.483113 1.64354 0.0391396 
0.534779 1.64611 0.0772952 -0.525018 1.41613 0.0803598 0.479897 1.6342 0.100351 
0.583651 1.18835 0.139991 -0.56753 1.44894 0.107113 0.522011 1.63618 0.143175 
-0.515022 1.42532 0.138881 0.451991 1.62297 0.161949 -0.580674 0.977308 0.161122 
-0.538735 1.45298 0.186566 0.499718 1.62689 0.198097 -0.537365 0.948984 0.191506 
0.549165 1.18162 0.232849 0.428366 1.61312 0.218155 -0.501599 1.44791 0.234517 
0.479112 1.61885 0.25387 -0.535931 0.985839 0.2618 0.521105 1.15209 0.282219 
0.425574 1.60589 0.277653 0.387174 1.59628 0.322746 0.447168 1.11984 0.35371 
-0.367096 1.4561 0.338611 0.328806 1.58834 0.334235 0.446217 1.61865 0.33254 
-0.417738 1.47102 0.36714 0.397586 1.603 0.381453 -0.326253 1.46554 0.381806 
0.342212 1.58299 0.393008 -0.430181 1.00448 0.405116 -0.33745 1.48531 0.437965 
-0.27725 1.47466 0.416908 -0.22071 1.48731 0.439205 0.159208 1.55474 0.446194 
0.241279 1.56753 0.424684 0.299862 1.57556 0.434855 0.317691 1.08865 0.462614 
-0.083322 1.51449 0.46141 0.00723019 1.53024 0.465428 0.208919 1.57331 0.475187 
-0.341995 1.01751 0.47624 0.273657 1.0998 0.51522 -0.269008 1.49371 0.474222 
-0.199665 1.50176 0.49528 -0.130624 1.50322 0.496561 0.0958708 1.54103 0.484524 
0.151303 1.55037 0.505521 0.267218 1.58206 0.486616 -0.239752 1.02137 0.526453 
0.202787 1.08454 0.544381 -0.0709251 1.51786 0.520012 -0.0114187 1.52519 0.522232 
0.0479047 1.53383 0.519841 0.199709 1.57826 0.534347 -0.166197 1.0368 0.557467 
0.0744437 1.05214 0.559366 0.146458 1.0645 0.550854 -0.166398 1.52165 0.541078 
-0.111359 1.53504 0.560872 0.0879454 1.55854 0.557074 0.145291 1.57664 0.559912 
0.0109862 1.04401 0.571364 
VERTICES 101 100
OFFSETS vtktypeint64
0 1 2 3 4 5 6 7 8 
9 10 11 12 13 14 15 16 17 
18 19 20 21 22 23 24 25 26 
27 28 29 30 31 32 33 34 35 
36 37 38 39 40 41 42 43 44 
45 46 47 48 49 50 51 52 53 
54 55 56 57 58 59 60 61 62 
63 64 65 66 67 68 69 70 71 
72 73 74 75 76 77 78 79 80 
81 82 83 84 85 86 87 88 89 
90 91 92 93 94 95 96 97 98 
99 100 
CONNECTIVITY vtktypeint64
0 1 2 3 4 5 6 7 8 
9 10 11 12 13 14 15 16 17 
18 19 20 21 22 23 24 25 26 
27 28 29 30 31 32 33 34 35 
36 37 38 39 40 41 42 43 44 
45 46 47 48 49 50 51 52 53 
54 55 56 57 58 59 60 61 62 
63 64 65 66 67 68 69 70 71 
72 73 74 75 76 77 78 79 80 
81 82 83 84 85 86 87 88 89 
90 91 92 93 94 95 96 97 98 
99 
POINT_DATA 100
FIELD FieldData 4
id 1 100 int
4 85 67 46 71 94 60 54 45 
32 59 13 6 26 55 70 93 31 
53 23 24 99 91 27 68 33 14 
35 20 76 86 30 36 8 47 74 
12 97 34 63 11 62 95 7 79 
52 43 66 9 50 98 19 16 3 
28 22 1 100 69 64 65 5 29 
57 18 15 17 41 56 92 25 84 
42 10 80 40 48 96 90 78 82 
2 58 77 83 21 49 38 89 44 
81 73 61 37 88 87 72 75 39 
51 
type 1 100 int
1 1 1 1 1 1 1 1 1 
1 1 1 1 1 1 1 1 1 
1 1 1 1 1 1 1 1 1 
1 1 1 1 1 1 1 1 1 
1 1 1 1 1 1 1 1 1 
1 1 1 1 1 1 1 1 1 
1 1 1 1 1 1 1 1 1 
1 1 1 1 1 1 1 1 1 
1 1 1 1 1 1 1 1 1 
1 1 1 1 1 1 1 1 1 
1 1 1 1 1 1 1 1 1 
1 
v 3 100 double
1.7552918901 0.041339847088 0.099816429559 1.54288022 -0.31486321953 0.67128180394 1.6170569581 -0.31358020069 -0.17774506437 
1.3609265933 -0.385499031 -0.45904736002 1.8714214676 -0.06946881205 -0.9936234333 2.2016353858 -0.70283712804 -0.73238419429 
1.8175776781 -0.17571127869 -0.018111623236 1.7325617417 -0.11576857404 0.5597221164 1.3886779967 -0.30741664133 -0.36046498107 
1.5588142899 -0.30303865176 -0.5294098162 1.6679622475 -0.17209842853 1.2031932185 1.3131755259 -0.2902747246 -0.4015318156 
1.3794912552 -0.17556493842 0.95104160329 1.112370407 -0.25756296328 -0.76892668663 1.2719729558 -0.14436777387 -1.0629079315 
1.2289327057 -0.24825962306 1.4979925325 1.2766207884 -0.2178574433 -1.1089274592 1.0664265352 -0.36337215042 -1.0876436297 
1.2157060153 -0.17710348309 1.3904210627 0.89564623599 -0.24964506338 -1.2833859265 0.87167750305 -0.26786838525 1.6550353432 
0.74031189609 -0.17332425718 -1.052811611 0.61457645606 -0.27445281947 -1.3614148651 0.60193854746 -0.27238968704 -1.4268208263 
0.86606562905 -0.25669730938 1.8762673897 0.45998634917 -0.16662144427 -1.3438446142 0.24558327976 -0.28840563789 1.8089794756 
0.2397896675 -0.27020163538 1.7687311419 0.4684980604 -0.0058245402364 -1.4229646044 0.34402546189 -0.36248370828 -1.5394709384 
0.27864633764 -0.49462529378 -2.3007380373 0.060009374062 -0.48499792802 1.9568568948 0.16776773779 -0.23735299576 -1.7706430548 
0.022395762169 -0.16726305543 0.94556050025 -0.020385331987 -0.14910896412 1.0024101816 -0.19733941693 -0.77715223306 -1.9121924604 
-0.24581170482 -0.16653373983 -1.4028630439 -0.31715604028 -0.18292072557 -1.6293865596 -0.042337864633 -0.14789305894 0.97801060614 
-0.15577322421 -0.1805582021 0.98937066087 -0.4426921372 -0.18347758209 -1.3613081647 -0.15864823721 -0.14535987279 0.8560649196 
-0.24705374219 -0.29002332995 1.9821040028 -0.41245355852 -0.060677333498 -1.4627609307 -0.25448297279 -0.074797979202 0.90991832113 
-0.60648336023 -0.153382578 -1.3321464016 -0.36994094329 -0.15406021288 0.87874135715 -0.23930042017 0.036775234412 -2.0971578941 
-0.63766412537 -0.17547648981 -1.3506630136 -0.35722450313 -0.15039968103 0.86043496695 -0.8147308239 -0.35115485674 -1.9603995848 
-0.69808853845 -0.3110589905 1.8227094555 -0.37827424483 -0.14623795517 0.8055813751 -0.54556186487 -0.28940109059 -1.4192602204 
-0.35673527196 -0.15097463215 0.86166124416 -0.92238923449 -0.32959424683 -2.0312085561 -0.82708650144 -0.51331305584 1.7215661381 
-0.38295518168 -0.1365416123 0.80761079177 -0.47435328482 -0.13879357238 0.73407348817 -1.3359062093 -0.37714360105 1.6609160019 
-0.73961110872 -0.16466793892 -0.85441593745 -0.50638993253 -0.17201642248 0.62271428293 -0.70384572043 -0.18075296421 0.94265166548 
-0.88705692947 -0.20796961474 -1.1184508318 -0.77352154231 -0.086982880437 0.7844861584 -0.80719457671 -0.22968947148 -0.81179473888 
-0.75335422093 -0.17139711393 0.73366226254 -1.6502834428 0.064959333728 -1.6008698144 -0.83379202808 -0.22673484585 -0.80673024223 
-0.94379555029 -0.1539395611 -0.62360794044 -0.88325486741 -0.13297748643 -0.53702294471 -1.0436566881 -0.15818102809 0.20344170438 
-0.84561930945 -0.19363788592 0.72606547105 -0.83621732836 -0.16741769526 0.65010002318 -1.4504343873 -0.21451027646 1.3261939372 
-0.96135646475 -0.14425708931 -0.23950369749 -1.0076005126 -0.176119583 -0.045693659627 -1.063989147 -0.56522515506 0.62887684589 
-1.8357377783 -0.26872122986 -1.2043517727 -2.1263501874 -0.25210562626 0.85863537502 -0.99000576097 -0.17030184211 -0.67214001677 
-0.89508226501 -0.1989840307 -0.47957728907 -1.0771993932 -0.16889046105 -0.39678212859 -0.94093899844 -0.15730125767 0.15551387163 
-0.97664751553 -0.11504973838 0.23252682838 -1.088357424 -0.16661784084 0.50889732471 -2.0996922289 -0.25052078078 -0.81389769535 
-1.6832726219 -0.40849253687 0.62415917834 -1.0097506167 -0.20098855405 -0.22368171528 -1.0271873407 -0.1299185132 -0.048964110679 
-1.0116207451 -0.19899491457 0.05234499556 -1.0851476554 -0.12730804202 0.60422965562 -2.2131703662 -0.095222105571 -0.78551929627 
-2.0885048506 -0.33147449159 0.29468255401 -1.8203072313 -0.078754028535 0.727162129 -1.0439559208 -0.14110207229 -0.3960025198 
-1.0621539872 -0.30392130133 -0.23825979673 -1.282267861 -0.14886508857 0.31133092144 -1.280532319 -0.14556893224 0.21494443432 
-2.238239533 -0.17861803436 -0.050290561615 
radius 1 100 double
0.03 0.03 0.03 0.03 0.03 0.03 0.03 0.03 0.03 
0.03 0.03 0.03 0.03 0.03 0.03 0.03 0.03 0.03 
0.03 0.03 0.03 0.03 0.03 0.03 0.03 0.03 0.03 
0.03 0.03 0.03 0.03 0.03 0.03 0.03 0.03 0.03 
0.03 0.03 0.03 0.03 0.03 0.03 0.03 0.03 0.03 
0.03 0.03 0.03 0.03 0.03 0.03 0.03 0.03 0.03 
0.03 0.03 0.03 0.03 0.03 0.03 0.03 0.03 0.03 
0.03 0.03 0.03 0.03 0.03 0.03 0.03 0.03 0.03 
0.03 0.03 0.03 0.03 0.03 0.03 0.03 0.03 0.03 
0.03 0.03 0.03 0.03 0.03 0.03 0.03 0.03 0.03 
0.03 0.03 0.03 0.03 0.03 0.03 0.03 0.03 0.03 
0.03 
