# vtk DataFile Version 5.1
Generated by LIGGGHTS
ASCII
DATASET POLYDATA
POINTS 100 float
0.122009 0.792346 -0.5727 -0.0384645 0.81849 -0.586847 0.098268 1.28966 -0.566276 
0.220424 0.784271 -0.54218 -0.169777 0.819949 -0.554078 0.155209 1.27546 -0.550109 
-0.118982 1.31443 -0.559766 0.284887 0.75202 -0.497108 0.221466 1.26151 -0.520676 
0.278517 1.28413 -0.524531 -0.236487 1.33557 -0.524818 0.360288 0.766707 -0.464182 
-0.310842 0.849571 -0.497101 0.264251 1.24381 -0.482153 0.322444 1.25658 -0.475127 
0.377935 1.26644 -0.454042 -0.271122 1.32667 -0.47664 -0.394817 0.871295 -0.433326 
-0.243628 1.31516 -0.424343 -0.307289 1.32353 -0.428071 -0.365077 1.3535 -0.433764 
0.397459 1.22359 -0.394106 -0.428583 0.863156 -0.380021 0.439221 1.22041 -0.350295 
-0.400864 1.34864 -0.371218 0.460645 0.703124 -0.31465 0.507816 0.740423 -0.31696 
-0.452633 1.37819 -0.364079 -0.492992 0.893754 -0.318271 0.4699 1.20508 -0.300792 
-0.429171 1.35119 -0.315377 -0.527224 0.8964 -0.257973 0.442458 1.18646 -0.24603 
0.501935 1.19865 -0.241815 -0.516149 1.39389 -0.269063 0.555028 0.714945 -0.198003 
0.557753 1.22566 -0.206163 -0.481775 1.36621 -0.227881 0.520535 1.18334 -0.1823 
-0.51979 1.38635 -0.184242 0.558938 1.19543 -0.127442 0.590842 0.71291 -0.087426 
-0.570334 0.915893 -0.158592 -0.533971 1.38937 -0.125674 0.540024 1.16271 -0.0613853 
-0.476351 1.37909 -0.11249 -0.537934 1.3961 -0.0649864 -0.588258 0.932542 -0.0488007 
0.546773 1.15385 -0.00213962 -0.480125 1.38837 -0.0509014 -0.5502 1.40913 -0.00767297 
-0.597361 0.943357 0.0102118 0.54151 1.14618 0.0575045 0.586318 1.18359 0.0369997 
-0.505941 1.40472 0.0330554 0.577798 0.671305 0.0950438 -0.576121 1.44151 0.0537895 
0.57968 1.1739 0.113348 -0.483641 1.41153 0.088334 -0.583055 0.959173 0.109538 
0.512332 1.12718 0.151819 -0.540649 1.42548 0.100882 -0.476163 1.42113 0.14708 
0.547594 1.15485 0.191708 -0.533068 1.43521 0.159842 -0.504486 1.44003 0.212448 
0.530459 1.14982 0.250045 -0.448394 1.43736 0.233754 -0.49272 1.45792 0.268603 
-0.473577 0.948084 0.284073 -0.515977 0.987723 0.299486 -0.449622 1.45685 0.310335 
-0.39102 1.4483 0.300714 -0.46115 0.980476 0.346277 0.444077 1.14177 0.394321 
-0.41573 1.46709 0.358832 -0.356615 1.45847 0.350094 -0.410618 0.977068 0.388625 
-0.377716 1.4763 0.404698 0.337675 0.60087 0.469599 0.228104 1.05903 0.477677 
0.36147 1.12321 0.463243 -0.339247 1.49226 0.447885 -0.283726 1.49333 0.470596 
-0.229608 1.48446 0.446254 -0.0464188 1.52026 0.468001 -0.323796 1.02115 0.489791 
-0.176192 1.49482 0.476547 -0.106891 1.50624 0.492097 -0.268355 0.99867 0.500214 
0.245725 1.09371 0.526995 -0.234961 1.50478 0.50439 -0.150126 1.51733 0.533603 
-0.0657386 1.5245 0.534504 -0.00902239 1.52236 0.514879 0.149014 0.578449 0.568016 
-0.216673 1.02556 0.534739 0.121694 1.08194 0.572281 -0.107475 1.04822 0.575248 
-0.0151059 1.05271 0.578264 
VERTICES 101 100
OFFSETS vtktypeint64
0 1 2 3 4 5 6 7 8 
9 10 11 12 13 14 15 16 17 
18 19 20 21 22 23 24 25 26 
27 28 29 30 31 32 33 34 35 
36 37 38 39 40 41 42 43 44 
45 46 47 48 49 50 51 52 53 
54 55 56 57 58 59 60 61 62 
63 64 65 66 67 68 69 70 71 
72 73 74 75 76 77 78 79 80 
81 82 83 84 85 86 87 88 89 
90 91 92 93 94 95 96 97 98 
99 100 
CONNECTIVITY vtktypeint64
0 1 2 3 4 5 6 7 8 
9 10 11 12 13 14 15 16 17 
18 19 20 21 22 23 24 25 26 
27 28 29 30 31 32 33 34 35 
36 37 38 39 40 41 42 43 44 
45 46 47 48 49 50 51 52 53 
54 55 56 57 58 59 60 61 62 
63 64 65 66 67 68 69 70 71 
72 73 74 75 76 77 78 79 80 
81 82 83 84 85 86 87 88 89 
90 91 92 93 94 95 96 97 98 
99 
POINT_DATA 100
FIELD FieldData 4
id 1 100 int
61 51 57 49 37 3 65 90 9 
7 15 41 88 52 11 12 56 38 
92 82 25 97 78 36 58 22 98 
2 80 20 87 64 76 27 72 66 
91 40 33 89 99 74 1 44 23 
48 75 19 31 81 39 95 93 55 
77 86 73 26 84 30 13 83 96 
32 21 42 45 17 10 35 14 18 
5 68 46 29 69 24 100 71 4 
67 16 28 43 8 70 62 34 53 
60 50 79 63 47 94 6 85 59 
54 
type 1 100 int
1 1 1 1 1 1 1 1 1 
1 1 1 1 1 1 1 1 1 
1 1 1 1 1 1 1 1 1 
1 1 1 1 1 1 1 1 1 
1 1 1 1 1 1 1 1 1 
1 1 1 1 1 1 1 1 1 
1 1 1 1 1 1 1 1 1 
1 1 1 1 1 1 1 1 1 
1 1 1 1 1 1 1 1 1 
1 1 1 1 1 1 1 1 1 
1 1 1 1 1 1 1 1 1 
1 
v 3 100 double
2.247971929 -0.43529487769 0.37324890582 2.2641795998 -0.37411133485 -0.30173697311 1.5450177415 -0.37115247558 0.31475453385 
2.1942558949 -0.27914172426 0.75193076508 2.1578878114 -0.4543486775 -0.75811163009 1.6462511697 -0.080824686911 0.51422726225 
1.7488406808 -0.16866898507 -0.49101938521 1.9226278801 -0.082217901715 1.3623494634 1.5029159255 -0.25000727313 0.61155722285 
1.603639767 -0.30569722137 0.68508388708 1.4583154064 -0.24888593742 -0.60841262347 1.6833815108 -0.56138268966 1.4515844989 
1.8169482989 -0.43276513579 -1.3498612941 1.4135683683 -0.1149294035 0.67995423199 1.4111533826 -0.29635693241 1.0619040519 
1.4016118569 -0.29277897114 1.0824082397 1.2919544227 -0.15065959282 -0.70965511558 1.4986636122 -0.073077921931 -1.2444071492 
1.2758875476 -0.24464029827 -0.73189211855 1.2234275072 -0.26843998142 -0.88542891505 1.2065738301 -0.18009530817 -1.1072744196 
1.0852798062 -0.10786433629 1.2250250534 1.0780836909 -0.20213584278 -1.6953622407 0.9371647989 -0.37235260953 1.3851858996 
0.98182126462 -0.29738559457 -1.1402621062 1.1428154503 -0.39851714774 1.8113571839 1.1729418288 -0.55381727942 1.8326598012 
0.97641458106 -0.30797042928 -1.0873210208 1.2790111245 -0.26930340398 -1.5129365124 0.91972277559 -0.39602500644 1.399641533 
0.98773536536 -0.31897814616 -1.0702630638 0.87029879563 -0.35760053578 -2.1759864731 0.78127671604 -0.21886581635 1.4213390921 
0.74648580003 -0.20876099071 1.5935813281 0.78569307216 -0.3955501156 -1.3662618286 0.84049086352 -0.33071506332 1.9829864297 
0.65189000502 -0.34338744414 1.7063823949 0.66691952688 -0.23535720398 -1.2200974976 0.60873484657 -0.33878297718 1.6296012582 
0.5584054436 -0.24657524051 -1.2575339166 0.32623477016 -0.26836557599 1.7585789408 0.34713287407 -0.21300620217 2.3038276638 
0.63930079238 -0.13919376831 -2.0523964354 0.3708874483 -0.25867513582 -1.2947410288 0.061860774101 -0.32147444897 1.797533823 
0.35319578916 -0.21058956489 -1.3241518415 0.12943343318 -0.17831982642 -1.2855869937 0.19777103878 -0.26378201509 -2.1160342562 
-0.12074701108 -0.17501838674 1.8176909097 0.12165737178 -0.19915049293 -1.2651378188 0.080101097051 -0.13687817027 -1.2959886762 
0.049164384579 -0.35862242939 -2.0948100005 -0.24898077734 -0.30251029095 1.7902368542 -0.23592706337 -0.25281625316 1.8703435142 
-0.10171573996 -0.19812180377 -1.1969881455 -0.32542948471 -0.55189653206 2.2872052984 -0.12748752472 -0.33658189388 -1.6299542355 
-0.26516969255 -0.34406992258 1.811819061 -0.28387244501 -0.17307757939 -1.1121955555 -0.70434280107 -0.067815493962 -2.1742374649 
-0.45163020393 -0.25558018324 1.6702004953 -0.32433887261 -0.088572807429 -1.3024524642 -0.31789628401 -0.19956930801 -1.0729103259 
-0.63060967377 -0.23192324122 1.8125587305 -0.37201668162 -0.28675498066 -1.2386796015 -0.60863922764 -0.1753645105 -1.1158960642 
-0.83648784061 -0.40575827265 1.7342983933 -0.59435449507 -0.17618442619 -1.1042343654 -0.57546176642 -0.10142016725 -1.1036843526 
-1.0443067922 -0.2464216074 -1.8063430664 -1.0019541274 -0.086155203282 -1.9791047137 -0.68792864663 -0.21066233015 -0.99478135323 
-0.69512290685 -0.17634488788 -1.0694136923 -1.3929984329 -0.24061804032 -1.6143337606 -1.2233761624 -0.4396793854 1.4612305356 
-0.79423318736 -0.17808333825 -0.92100229011 -0.76452124771 -0.20768151529 -0.95161734231 -1.345001303 -0.20204010025 -1.6032707959 
-0.84989565677 -0.23613315563 -0.83601176304 -1.8300034745 -0.58250088989 1.2644205609 -1.8626748445 -0.43132074017 0.8357781631 
-1.4911830616 -0.41898512438 1.158227779 -0.93091433072 -0.24322817349 -0.76790583557 -0.99871911087 -0.1586103177 -0.63882068126 
-1.014688244 -0.1463643388 -0.67115326107 -1.2446383161 -0.24513190424 0.16542901058 -1.6997574187 -0.28934927669 -1.2315824273 
-1.2003958535 -0.19066253591 -0.44832593063 -1.0315632344 -0.17025731214 -0.11424311846 -1.794816398 -0.4465488246 -0.85129689438 
-1.9884148885 -0.29011299263 0.92184552702 -1.3078692056 -0.25549714898 -0.61037324385 -1.3529798683 -0.19873050609 -0.46386824452 
-1.012315146 -0.15960017578 -0.12014344608 -0.98210339169 -0.12632774194 -0.049477433117 -2.3428261989 -0.061911356723 0.29153419248 
-2.1768636443 -0.3048901216 -0.73818764038 -1.7917182772 -0.056568200437 0.39949650973 -1.8035600698 -0.1373958318 -0.12380756275 
-2.209767987 -0.10234035862 -0.19359236099 
radius 1 100 double
0.03 0.03 0.03 0.03 0.03 0.03 0.03 0.03 0.03 
0.03 0.03 0.03 0.03 0.03 0.03 0.03 0.03 0.03 
0.03 0.03 0.03 0.03 0.03 0.03 0.03 0.03 0.03 
0.03 0.03 0.03 0.03 0.03 0.03 0.03 0.03 0.03 
0.03 0.03 0.03 0.03 0.03 0.03 0.03 0.03 0.03 
0.03 0.03 0.03 0.03 0.03 0.03 0.03 0.03 0.03 
0.03 0.03 0.03 0.03 0.03 0.03 0.03 0.03 0.03 
0.03 0.03 0.03 0.03 0.03 0.03 0.03 0.03 0.03 
0.03 0.03 0.03 0.03 0.03 0.03 0.03 0.03 0.03 
0.03 0.03 0.03 0.03 0.03 0.03 0.03 0.03 0.03 
0.03 0.03 0.03 0.03 0.03 0.03 0.03 0.03 0.03 
0.03 
