# vtk DataFile Version 5.1
Generated by LIGGGHTS
ASCII
DATASET POLYDATA
POINTS 100 float
-0.0190542 1.80324 -0.571966 -0.0604115 1.84706 -0.594572 0.115258 1.7754 -0.543938 
0.059048 1.78827 -0.560592 0.176607 1.78167 -0.544479 -0.0631196 1.79341 -0.525892 
0.000896408 1.77877 -0.520952 0.261412 1.78046 -0.521587 -0.183252 1.82726 -0.540196 
-0.121019 1.81082 -0.539767 0.0321096 1.83533 -0.53494 0.091796 1.81735 -0.508059 
0.145494 1.83115 -0.530948 -0.236377 1.85459 -0.534041 -0.121197 1.8708 -0.540093 
-0.314675 1.90924 -0.525466 0.0634273 1.76477 -0.502853 0.130165 1.75379 -0.489991 
0.211328 1.75573 -0.499679 0.30714 1.76462 -0.486113 -0.15729 1.80092 -0.492974 
-0.215154 1.81822 -0.489433 -0.0946161 1.82884 -0.488998 -0.00901629 1.82704 -0.486771 
-0.291324 1.85738 -0.506061 0.231823 1.73605 -0.446716 -0.0546097 1.7902 -0.466504 
0.0206661 1.77848 -0.462783 0.123646 1.80366 -0.457381 0.201418 1.79097 -0.452146 
0.267062 1.78461 -0.446189 -0.261378 1.81902 -0.450527 -0.316545 1.8424 -0.453483 
-0.170076 1.85759 -0.477975 -0.360635 1.88158 -0.464443 -0.240923 1.87079 -0.47615 
-0.300002 1.89953 -0.463299 0.299707 1.73465 -0.434668 0.157353 1.75516 -0.432764 
-0.124048 1.80358 -0.442968 0.0747545 1.77595 -0.436062 -0.183855 1.81154 -0.438666 
-0.0142972 1.80902 -0.424703 -0.0444942 1.85914 -0.443154 0.352725 1.72818 -0.407277 
0.408975 1.73252 -0.386856 -0.345314 1.83584 -0.390219 -0.230202 1.8224 -0.399209 
-0.391679 1.86423 -0.415605 -0.174982 1.86067 -0.405374 -0.120077 1.83875 -0.394516 
-0.306098 1.87937 -0.406961 -0.24177 1.87865 -0.416607 0.301985 1.72388 -0.375548 
-0.285649 1.83198 -0.375347 -0.419104 1.86214 -0.359917 0.373596 1.7111 -0.343383 
0.435327 1.7148 -0.335703 -0.233913 1.85485 -0.348885 -0.362099 1.87929 -0.352392 
-0.180929 1.88299 -0.349839 -0.469528 1.90063 -0.354642 -0.303891 1.90599 -0.353134 
0.402175 1.69865 -0.287857 -0.415468 1.85495 -0.296612 -0.355654 1.84838 -0.301371 
-0.29709 1.8556 -0.321012 -0.471077 1.87741 -0.298422 -0.419575 1.90904 -0.322498 
-0.318962 1.90368 -0.291695 -0.239965 1.90042 -0.310188 -0.378801 1.89928 -0.279579 
-0.401316 1.95473 -0.275202 0.431815 1.68775 -0.231442 0.487992 1.69851 -0.249564 
0.53665 1.72213 -0.22357 -0.476327 1.86851 -0.238575 -0.404563 1.86119 -0.23791 
-0.341132 1.88583 -0.234852 -0.435916 1.90729 -0.260077 -0.525965 1.90054 -0.228104 
-0.470133 1.92244 -0.213036 -0.389805 1.91904 -0.22353 0.510311 1.68624 -0.182986 
-0.497871 1.87847 -0.179901 -0.439158 1.87099 -0.189736 -0.388766 1.89554 -0.168335 
-0.543658 1.90456 -0.151212 -0.44352 1.92404 -0.159287 0.492572 1.67249 -0.126123 
0.545129 1.68151 -0.0986152 -0.470486 1.88274 -0.125125 -0.414961 1.90476 -0.110169 
-0.52231 1.8924 -0.0964725 0.549351 1.66886 -0.0386827 -0.467041 1.89291 -0.0660945 
-0.519005 1.90081 -0.0371566 0.541759 1.65465 0.0259258 0.590029 1.69232 0.0196491 
0.528042 1.64757 0.208665 
VERTICES 101 100
OFFSETS vtktypeint64
0 1 2 3 4 5 6 7 8 
9 10 11 12 13 14 15 16 17 
18 19 20 21 22 23 24 25 26 
27 28 29 30 31 32 33 34 35 
36 37 38 39 40 41 42 43 44 
45 46 47 48 49 50 51 52 53 
54 55 56 57 58 59 60 61 62 
63 64 65 66 67 68 69 70 71 
72 73 74 75 76 77 78 79 80 
81 82 83 84 85 86 87 88 89 
90 91 92 93 94 95 96 97 98 
99 100 
CONNECTIVITY vtktypeint64
0 1 2 3 4 5 6 7 8 
9 10 11 12 13 14 15 16 17 
18 19 20 21 22 23 24 25 26 
27 28 29 30 31 32 33 34 35 
36 37 38 39 40 41 42 43 44 
45 46 47 48 49 50 51 52 53 
54 55 56 57 58 59 60 61 62 
63 64 65 66 67 68 69 70 71 
72 73 74 75 76 77 78 79 80 
81 82 83 84 85 86 87 88 89 
90 91 92 93 94 95 96 97 98 
99 
POINT_DATA 100
FIELD FieldData 4
id 1 100 int
32 31 60 45 24 23 46 95 7 
20 59 53 54 56 76 2 4 68 
35 80 33 9 99 67 72 1 93 
85 70 30 19 82 92 12 44 3 
15 64 14 27 6 97 26 13 38 
51 40 52 48 91 55 65 11 78 
89 81 88 37 57 77 36 10 87 
61 73 39 58 17 21 75 25 84 
83 49 90 98 18 42 69 96 28 
5 100 41 50 29 43 79 16 22 
66 63 62 47 74 34 8 86 71 
94 
type 1 100 int
1 1 1 1 1 1 1 1 1 
1 1 1 1 1 1 1 1 1 
1 1 1 1 1 1 1 1 1 
1 1 1 1 1 1 1 1 1 
1 1 1 1 1 1 1 1 1 
1 1 1 1 1 1 1 1 1 
1 1 1 1 1 1 1 1 1 
1 1 1 1 1 1 1 1 1 
1 1 1 1 1 1 1 1 1 
1 1 1 1 1 1 1 1 1 
1 1 1 1 1 1 1 1 1 
1 
v 3 100 double
0.72017552966 -0.15005032656 -0.070867736363 0.62483231659 -0.383606353 0.13083447253 0.74000226358 -0.11861473709 0.036115872395 
0.69541656806 -0.1186411924 0.11094204657 0.65893606725 -0.19428478595 0.33857315293 0.37021607558 -0.10823516605 -0.10572263634 
0.63326385859 -0.074786164698 0.0044900265919 0.92578836898 -0.30286041878 0.50972416255 0.5373907026 -0.13597965952 -0.32018004143 
0.46926345716 -0.06811307016 -0.12604699154 0.76151363378 -0.056066676884 0.093720929314 0.91338263044 -0.18249547264 0.18885316253 
0.87427251295 -0.017232879191 0.1510167258 0.50724244173 -0.14705218057 -0.10515099492 0.68114479582 -0.077279713351 -0.46915588731 
0.68725139023 -0.47440048363 -0.48328397586 0.66893103158 -0.073897291131 0.23827136512 0.87837492356 -0.010247852366 0.037106043779 
0.74908984546 -0.12825181128 0.3029614232 0.94867285401 -0.06326042185 0.58900538583 0.39628189507 -0.086214346456 -0.22439286944 
0.48680340139 -0.095795139709 -0.1869482247 0.55814739887 -0.11041361899 -0.16117796555 0.53728570834 -0.098188540277 0.034102983796 
0.59710855955 -0.38249580553 4.9760915944e-06 0.87299177987 -0.17103425648 0.22424160427 0.53412140075 -0.098137525492 -0.12296564077 
0.55398558063 -0.091289805489 0.065289523203 0.91580128649 -0.19002576863 0.31927787785 0.89672802777 -0.21973822579 0.40171903915 
0.84144110058 -0.15143693771 0.52668909871 0.37267304433 -0.079885386939 -0.22120322437 0.32950051315 -0.13849213474 -0.0022993782707 
0.44668688314 -0.082438743121 -0.16843502038 0.22601807103 -0.26163597295 -0.027574664292 0.63034401674 -0.023207347866 -0.11754572692 
0.66816097058 -0.35510090059 -0.12989105798 0.81147835448 -0.13436836544 0.5281072362 0.71169667349 -0.14882864768 0.11235439704 
0.4082792953 -0.078395530035 -0.24089062448 0.73305447296 -0.38679149224 -0.23341389403 0.51856075123 -0.092239947723 -0.19608049311 
0.40321618218 -0.08711646073 -0.06113233235 0.82054244154 0.16743013704 -0.066873156658 0.743362061 -0.17920745827 0.64974433883 
0.680581772 -0.13109822918 0.82312360529 0.23172590691 -0.036284901146 -0.091779740058 0.35968101779 -0.073950002522 -0.18886255445 
0.1736780247 -0.071104244156 -0.024997439028 0.57482450843 -0.10905060925 -0.16854583363 0.47175553483 -0.088037691533 -0.2267429305 
0.34755814464 -0.081232371993 0.033369936685 0.42532047541 -0.031654571881 -0.094496366558 0.67297535165 -0.13311636248 0.54681468157 
0.16627286735 0.071940741373 -0.11520411937 0.17033556918 -0.073934080538 -0.10434824565 0.54783174752 -0.14422050638 0.7100033745 
0.81305874604 -0.10588984259 0.65012610818 0.26461425089 -0.05288304955 -0.20621137181 0.16222576295 -0.040668410182 -0.11824861135 
0.34873824531 -0.23879601108 -0.23145964973 0.12935192377 -0.11111935833 -0.098103337776 0.27408026358 0.091337921905 0.024631195963 
0.79592816319 -0.15978698067 0.80326066863 0.076498164435 -0.02048807985 -0.070744649851 0.068179915057 -0.021848509191 -0.095446866875 
-0.014785177792 -0.086644960779 -0.22049065498 0.079446249378 -0.019410505249 -0.1137025209 0.14959248457 -0.037951670232 -0.15116207396 
-0.047187817477 -0.26119903494 0.20810994531 0.16111257786 -0.21629324135 -0.053104059131 0.081031036863 -0.021664339745 -0.090072032091 
0.074131765079 -0.02970342791 -0.025639498069 0.55762747548 -0.14629902747 1.0154740446 0.57826520004 -0.16905487639 1.0599697499 
0.48506864639 -0.27441054577 1.3131331606 0.055421102922 -0.023424317235 -0.13179394151 0.051790153341 -0.013924434839 -0.068128942436 
0.074559695719 -0.010254845322 -0.079575383197 0.068008218593 -0.020029255677 -0.10352690628 0.062308310011 -0.035920362542 -0.057130748228 
0.086982521967 -0.058584858005 -0.066038908879 0.029595707063 -0.088222643186 -0.032650822862 0.52162413471 -0.22546637592 1.2824376465 
0.035696040752 -0.0088779457313 -0.035698183681 0.028435097561 -0.012392687269 -0.072814167082 -0.0084974604668 -0.0028727188638 0.0035065087463 
0.041877294633 -0.027166976717 -0.0080082729672 0.080766246664 -0.091042003823 -0.06223118651 0.18057309076 -0.19875593252 1.2367348742 
0.10291929157 -0.29390852115 1.4071962057 -0.006186332393 -0.0028388471496 -0.024695150423 -0.0017091390137 0.0077955198466 0.02439909344 
0.013151539529 -9.6458118612e-05 0.0092031725262 0.12448309299 -0.27792710957 1.4097507471 -0.065486343314 -0.033018900819 -0.016135957991 
-0.044068465543 0.0065684313474 0.011456656804 -0.035618823623 -0.10850907782 1.2934237982 -0.20539875724 -0.19698040693 1.7304600125 
-0.43128687188 -0.074965803911 2.0163529581 
radius 1 100 double
0.03 0.03 0.03 0.03 0.03 0.03 0.03 0.03 0.03 
0.03 0.03 0.03 0.03 0.03 0.03 0.03 0.03 0.03 
0.03 0.03 0.03 0.03 0.03 0.03 0.03 0.03 0.03 
0.03 0.03 0.03 0.03 0.03 0.03 0.03 0.03 0.03 
0.03 0.03 0.03 0.03 0.03 0.03 0.03 0.03 0.03 
0.03 0.03 0.03 0.03 0.03 0.03 0.03 0.03 0.03 
0.03 0.03 0.03 0.03 0.03 0.03 0.03 0.03 0.03 
0.03 0.03 0.03 0.03 0.03 0.03 0.03 0.03 0.03 
0.03 0.03 0.03 0.03 0.03 0.03 0.03 0.03 0.03 
0.03 0.03 0.03 0.03 0.03 0.03 0.03 0.03 0.03 
0.03 0.03 0.03 0.03 0.03 0.03 0.03 0.03 0.03 
0.03 
