# vtk DataFile Version 5.1
Generated by LIGGGHTS
ASCII
DATASET POLYDATA
POINTS 100 float
-0.0118454 1.80223 -0.572102 -0.0541224 1.84298 -0.593085 0.122651 1.7744 -0.543483 
0.0660471 1.78702 -0.559384 0.183113 1.77953 -0.54089 -0.177995 1.82648 -0.543082 
-0.11612 1.81029 -0.541052 -0.114323 1.87014 -0.54481 -0.05878 1.79232 -0.527448 
0.00734168 1.77796 -0.520639 0.270659 1.77727 -0.516349 0.039675 1.8345 -0.53389 
0.100725 1.81572 -0.505915 0.154131 1.83077 -0.529303 -0.231426 1.85287 -0.535185 
-0.307534 1.90443 -0.529503 0.0701263 1.76391 -0.5006 0.138979 1.75355 -0.489542 
0.218688 1.7545 -0.496788 0.31661 1.76391 -0.480157 -0.153223 1.80017 -0.495005 
-0.21057 1.81745 -0.491503 -0.089425 1.82799 -0.490129 -0.00366682 1.82588 -0.486241 
-0.285353 1.85306 -0.50606 -0.165655 1.85678 -0.479482 0.240316 1.73502 -0.44424 
0.0261953 1.77758 -0.462075 -0.0491969 1.78924 -0.467772 0.132745 1.80206 -0.453715 
0.210467 1.78861 -0.448041 -0.257501 1.81825 -0.452799 -0.313102 1.84081 -0.453432 
-0.358437 1.87858 -0.464728 -0.293324 1.89646 -0.464615 -0.234902 1.8705 -0.477341 
0.307642 1.73328 -0.429347 0.0821395 1.77193 -0.438561 0.164531 1.75366 -0.431663 
-0.119844 1.80268 -0.445026 -0.0103365 1.80775 -0.425256 0.275738 1.78347 -0.440704 
-0.179155 1.81068 -0.440867 -0.389906 1.86349 -0.415829 -0.0362888 1.86033 -0.443823 
-0.237558 1.87826 -0.417817 0.359944 1.72639 -0.40077 0.415609 1.73126 -0.378915 
-0.342914 1.83547 -0.391209 -0.226546 1.82172 -0.401053 -0.114755 1.83738 -0.396343 
-0.16947 1.85952 -0.407417 -0.303115 1.87881 -0.407673 0.308575 1.7226 -0.370003 
-0.283663 1.83123 -0.376199 -0.417352 1.86143 -0.361142 -0.468214 1.89966 -0.355705 
0.379044 1.70963 -0.336193 0.443244 1.71376 -0.328609 -0.231408 1.85429 -0.350899 
-0.360427 1.87885 -0.353641 -0.177634 1.88088 -0.351953 -0.301151 1.90641 -0.352888 
-0.414782 1.85479 -0.297412 -0.355023 1.84812 -0.302393 -0.297075 1.85471 -0.322418 
-0.470373 1.87729 -0.299626 -0.238702 1.89889 -0.311329 -0.418046 1.90856 -0.324014 
0.410228 1.69704 -0.279828 -0.378103 1.89907 -0.28026 -0.318861 1.90079 -0.289893 
-0.400693 1.95445 -0.275387 0.437205 1.68609 -0.221204 0.493547 1.69701 -0.238783 
-0.475744 1.86826 -0.23998 -0.403992 1.86104 -0.238654 -0.340317 1.88577 -0.235594 
-0.435196 1.90707 -0.261187 0.541553 1.71949 -0.210584 -0.525299 1.90016 -0.228729 
-0.469243 1.92183 -0.213759 -0.389498 1.91808 -0.223902 0.515415 1.68392 -0.169918 
-0.497463 1.87839 -0.180243 -0.438831 1.87085 -0.190512 -0.38884 1.89551 -0.168314 
-0.543212 1.90427 -0.151313 -0.442668 1.92304 -0.159981 0.49425 1.67048 -0.11373 
-0.470552 1.88271 -0.125404 -0.415013 1.90481 -0.109956 0.546022 1.67844 -0.0844673 
-0.522171 1.8924 -0.0963924 -0.467721 1.89256 -0.0662864 0.550433 1.66594 -0.0245298 
-0.519456 1.90087 -0.0370562 0.540938 1.65323 0.0388267 0.588163 1.69038 0.0369958 
0.523567 1.6467 0.228803 
VERTICES 101 100
OFFSETS vtktypeint64
0 1 2 3 4 5 6 7 8 
9 10 11 12 13 14 15 16 17 
18 19 20 21 22 23 24 25 26 
27 28 29 30 31 32 33 34 35 
36 37 38 39 40 41 42 43 44 
45 46 47 48 49 50 51 52 53 
54 55 56 57 58 59 60 61 62 
63 64 65 66 67 68 69 70 71 
72 73 74 75 76 77 78 79 80 
81 82 83 84 85 86 87 88 89 
90 91 92 93 94 95 96 97 98 
99 100 
CONNECTIVITY vtktypeint64
0 1 2 3 4 5 6 7 8 
9 10 11 12 13 14 15 16 17 
18 19 20 21 22 23 24 25 26 
27 28 29 30 31 32 33 34 35 
36 37 38 39 40 41 42 43 44 
45 46 47 48 49 50 51 52 53 
54 55 56 57 58 59 60 61 62 
63 64 65 66 67 68 69 70 71 
72 73 74 75 76 77 78 79 80 
81 82 83 84 85 86 87 88 89 
90 91 92 93 94 95 96 97 98 
99 
POINT_DATA 100
FIELD FieldData 4
id 1 100 int
32 31 60 45 24 7 20 76 23 
46 95 59 53 54 56 2 4 68 
35 80 33 9 99 67 72 12 1 
85 93 70 30 82 92 44 15 3 
64 6 14 27 26 19 97 48 13 
11 38 51 40 52 55 91 65 78 
89 81 10 88 37 57 77 36 87 
73 39 58 17 25 21 61 84 75 
83 49 90 18 42 69 96 98 28 
5 100 41 50 29 43 79 16 22 
63 62 66 47 34 74 8 86 71 
94 
type 1 100 int
1 1 1 1 1 1 1 1 1 
1 1 1 1 1 1 1 1 1 
1 1 1 1 1 1 1 1 1 
1 1 1 1 1 1 1 1 1 
1 1 1 1 1 1 1 1 1 
1 1 1 1 1 1 1 1 1 
1 1 1 1 1 1 1 1 1 
1 1 1 1 1 1 1 1 1 
1 1 1 1 1 1 1 1 1 
1 1 1 1 1 1 1 1 1 
1 1 1 1 1 1 1 1 1 
1 
v 3 100 double
0.71675434375 -0.02917160499 0.053881645209 0.63303687708 -0.43338608769 0.16641260567 0.72940643776 -0.098076924342 0.05826614298 
0.70490334544 -0.13087160137 0.13030566678 0.64082258028 -0.23687076041 0.37688974397 0.53422294798 -0.07979414284 -0.26286128942 
0.50418827232 -0.052139340157 -0.12852696897 0.69412033258 -0.079131263212 -0.47424073217 0.4736380743 -0.018584109668 -0.17951764793 
0.6551925973 -0.097437597554 0.063122545343 0.92146144281 -0.33516825407 0.53773130735 0.74910937118 -0.10211304604 0.12071376962 
0.883955766 -0.17027762618 0.23515846534 0.85512767546 -0.070223467297 0.17451458351 0.42452664973 -0.041795737064 -0.22077715135 
0.7734560834 -0.43326418136 -0.22677240161 0.68063261295 -0.092602523473 0.21302571891 0.88172898273 -0.072228758902 0.044960167459 
0.71835218443 -0.11553594486 0.27197378984 0.9426937199 -0.080476769876 0.60323434151 0.43484425668 -0.073910455041 -0.18449581828 
0.42209345255 -0.05166452844 -0.17915961749 0.52041281549 -0.027272970606 -0.081851349032 0.53482970165 -0.16385905607 0.053545594519 
0.59710855955 -0.48059580553 4.9760915944e-06 0.43894358043 -0.093027357638 -0.13841748489 0.82258659932 -0.049131437616 0.27992378932 
0.55422107321 -0.090373378327 0.075897045696 0.54607813336 -0.097382153858 -0.13165273462 0.90970520543 -0.20664868289 0.3677767872 
0.91613566583 -0.26260321498 0.41057122862 0.39446687975 -0.078415495568 -0.23149307131 0.35643590671 -0.16565283599 0.011193861191 
0.2197061755 -0.34856496018 -0.028506208035 0.66850487117 -0.29700447946 -0.13202265057 0.5639476681 -0.020808416401 -0.12129822889 
0.77664674988 -0.13853081987 0.53767554239 0.74394767437 -0.41639202729 -0.26626594745 0.72383217096 -0.15253195424 0.10625849169 
0.44311957961 -0.080338721812 -0.16341066256 0.38043314095 -0.15377970456 -0.042704915001 0.90113064086 -0.073782774167 0.57083549535 
0.43551893961 -0.098797961328 -0.16530602041 0.18117436746 -0.076254245068 -0.019561797054 0.82054244154 0.069330137041 -0.066873156658 
0.42046157397 -0.047634426922 -0.14398196033 0.70222390341 -0.17933908399 0.64833393825 0.64726971613 -0.1210210206 0.77682509834 
0.24827154729 -0.039754059824 -0.10597634867 0.36693264221 -0.068319855497 -0.18006441405 0.55063015433 -0.12459905626 -0.13049011464 
0.54821644429 -0.11740472081 -0.18659368143 0.28348295668 -0.081690305138 -0.10350469829 0.64037270533 -0.12151860832 0.56410790197 
0.20608993835 0.0087760015943 -0.05861024042 0.17975965861 -0.071465768093 -0.13606255561 0.13584416154 -0.10143950597 -0.11054587608 
0.54177776874 -0.14949973878 0.72781370574 0.7049971712 -0.06016380435 0.77948846702 0.24091844409 -0.057375987565 -0.1993514418 
0.17263822682 -0.048652871815 -0.13131722109 0.32132049907 -0.21031260227 -0.20543587777 0.27408026358 -0.0067620780945 0.024631195963 
0.048706850236 -0.014579987015 -0.095214136572 0.058366773463 -0.031448769178 -0.10894030037 0.0079812639193 -0.11833892127 -0.10741018412 
0.044567597987 0.0042774361029 -0.12413506975 0.10094436977 -0.1180296783 -0.16457910893 0.15367060248 -0.059647080102 -0.15325216729 
0.8165896742 -0.14188929491 0.8039851078 0.051038831203 -0.01768542095 -0.048884955299 0.10571815274 -0.30317952217 0.13398923925 
0.048351441112 -0.015879051472 -0.0097470435202 0.51415179285 -0.17077048253 1.0360122657 0.53447396261 -0.13692976011 1.1000296815 
0.061070147955 -0.025838337914 -0.148690165 0.061826136198 -0.016523984122 -0.081149521957 0.078363888319 0.004338421356 -0.061791386065 
0.075647594916 -0.030549293 -0.12893350352 0.48702045989 -0.2634483316 1.2924100076 0.070745396416 -0.040593196603 -0.06495206162 
0.090811364506 -0.063728028569 -0.078027235956 0.015971292729 -0.093899788581 -0.036298691614 0.5051135366 -0.23628063363 1.3193647483 
0.044477429624 -0.0094116480932 -0.035781245506 0.035635911306 -0.01464982641 -0.082454374068 -0.0065212196618 -0.0035307163143 -0.00034656681617 
0.047568846203 -0.030442591094 -0.012213872521 0.088567238413 -0.10755265915 -0.0757081002 0.15789576224 -0.20283647104 1.2429380884 
-0.0070652888523 -0.0033009989674 -0.031172009984 -0.0091391487877 0.0024750778267 0.018407572042 0.074824147987 -0.31966796381 1.4217588134 
0.014788457916 -0.00063130118884 0.0067899191354 -0.070589606609 -0.036741218282 -0.022578181644 0.091907416034 -0.30636932627 1.4208340652 
-0.046065649063 0.0063663114087 0.0085649309917 -0.1717410617 -0.20790132861 1.283685717 -0.15777646564 -0.10175952751 1.7441680139 
-0.46375851994 -0.097883675652 2.0111601765 
radius 1 100 double
0.03 0.03 0.03 0.03 0.03 0.03 0.03 0.03 0.03 
0.03 0.03 0.03 0.03 0.03 0.03 0.03 0.03 0.03 
0.03 0.03 0.03 0.03 0.03 0.03 0.03 0.03 0.03 
0.03 0.03 0.03 0.03 0.03 0.03 0.03 0.03 0.03 
0.03 0.03 0.03 0.03 0.03 0.03 0.03 0.03 0.03 
0.03 0.03 0.03 0.03 0.03 0.03 0.03 0.03 0.03 
0.03 0.03 0.03 0.03 0.03 0.03 0.03 0.03 0.03 
0.03 0.03 0.03 0.03 0.03 0.03 0.03 0.03 0.03 
0.03 0.03 0.03 0.03 0.03 0.03 0.03 0.03 0.03 
0.03 0.03 0.03 0.03 0.03 0.03 0.03 0.03 0.03 
0.03 0.03 0.03 0.03 0.03 0.03 0.03 0.03 0.03 
0.03 
