# vtk DataFile Version 5.1
Generated by LIGGGHTS
ASCII
DATASET POLYDATA
POINTS 100 float
0.144987 1.7992 -0.568239 -0.133467 1.86466 -0.581402 -0.0361025 1.80304 -0.565815 
0.0358057 1.78476 -0.545412 0.192993 1.77905 -0.537912 -0.107553 1.81559 -0.558593 
0.0900254 1.81611 -0.546414 0.117964 1.76752 -0.524993 -0.0773174 1.78957 -0.510906 
-0.0182315 1.77806 -0.513891 -0.186831 1.82246 -0.525 -0.0241199 1.83779 -0.512641 
-0.23818 1.85351 -0.524891 -0.080944 1.85478 -0.521774 0.0360382 1.84665 -0.529224 
-0.296394 1.87498 -0.51634 0.256506 1.74597 -0.4756 0.0364852 1.77206 -0.486777 
0.189284 1.75071 -0.484862 0.101026 1.80766 -0.483745 0.160139 1.80248 -0.493416 
-0.272558 1.83374 -0.479866 -0.130551 1.82077 -0.50315 0.131802 1.75629 -0.467688 
0.315935 1.74896 -0.464444 -0.0442183 1.78955 -0.460862 -0.211305 1.81043 -0.47014 
0.0196926 1.82795 -0.472838 -0.355119 1.85929 -0.451204 -0.233313 1.86714 -0.449144 
-0.147154 1.85532 -0.456268 -0.0861981 1.84929 -0.462278 -0.295232 1.88091 -0.450528 
-0.187735 1.89383 -0.477599 -0.340988 1.91364 -0.472477 -0.412704 1.93639 -0.45038 
0.217254 1.74165 -0.430431 0.285794 1.72779 -0.415662 0.359878 1.73484 -0.424421 
0.0770344 1.77122 -0.442552 -0.120381 1.80248 -0.446919 -0.305071 1.82768 -0.424648 
-0.00519908 1.81029 -0.420275 -0.14013 1.90329 -0.420821 -0.402189 1.99606 -0.440263 
-0.226108 1.82007 -0.412639 -0.166364 1.82335 -0.408175 -0.0653401 1.82053 -0.413901 
-0.374958 1.85004 -0.395329 -0.419787 1.89558 -0.40582 -0.355738 1.90654 -0.401913 
-0.275917 1.90343 -0.39838 -0.338789 1.96462 -0.417988 0.344153 1.71392 -0.345855 
0.286652 1.73043 -0.355727 0.399013 1.72058 -0.369223 0.463754 1.75286 -0.364319 
-0.273521 1.83049 -0.373693 -0.313759 1.87265 -0.359419 -0.229227 1.87044 -0.380183 
0.440697 1.71263 -0.326294 -0.431102 1.86736 -0.352925 -0.373584 1.88223 -0.344314 
-0.176306 1.87908 -0.353268 -0.478681 1.90608 -0.345859 -0.336173 1.92914 -0.346224 
-0.231379 1.91114 -0.336157 -0.417652 1.85533 -0.29539 -0.357277 1.85028 -0.296222 
-0.263844 1.86224 -0.323714 -0.428333 1.91289 -0.313949 0.444916 1.69734 -0.267307 
0.505539 1.7137 -0.254447 -0.47406 1.87769 -0.292361 -0.383068 1.90073 -0.276496 
-0.30312 1.88902 -0.272669 -0.405722 1.9563 -0.273733 -0.336655 1.93745 -0.286463 
-0.2569 1.93074 -0.28513 -0.478129 1.86957 -0.231937 -0.405555 1.8616 -0.23632 
-0.438517 1.90835 -0.254882 0.508752 1.68976 -0.199492 -0.348769 1.88558 -0.229587 
-0.529027 1.90218 -0.224137 -0.392294 1.92597 -0.220925 -0.477486 1.93172 -0.2157 
0.559837 1.71937 -0.180933 -0.500117 1.8791 -0.176897 -0.440983 1.8719 -0.184217 
-0.387839 1.89556 -0.169399 0.528343 1.68143 -0.143345 -0.5473 1.90711 -0.152387 
-0.443225 1.9284 -0.164147 -0.469968 1.88268 -0.125147 -0.414253 1.903 -0.116042 
-0.52335 1.89208 -0.0994126 0.542743 1.66281 -0.0353624 -0.461798 1.89507 -0.0670032 
-0.515385 1.89993 -0.0403645 
VERTICES 101 100
OFFSETS vtktypeint64
0 1 2 3 4 5 6 7 8 
9 10 11 12 13 14 15 16 17 
18 19 20 21 22 23 24 25 26 
27 28 29 30 31 32 33 34 35 
36 37 38 39 40 41 42 43 44 
45 46 47 48 49 50 51 52 53 
54 55 56 57 58 59 60 61 62 
63 64 65 66 67 68 69 70 71 
72 73 74 75 76 77 78 79 80 
81 82 83 84 85 86 87 88 89 
90 91 92 93 94 95 96 97 98 
99 100 
CONNECTIVITY vtktypeint64
0 1 2 3 4 5 6 7 8 
9 10 11 12 13 14 15 16 17 
18 19 20 21 22 23 24 25 26 
27 28 29 30 31 32 33 34 35 
36 37 38 39 40 41 42 43 44 
45 46 47 48 49 50 51 52 53 
54 55 56 57 58 59 60 61 62 
63 64 65 66 67 68 69 70 71 
72 73 74 75 76 77 78 79 80 
81 82 83 84 85 86 87 88 89 
90 91 92 93 94 95 96 97 98 
99 
POINT_DATA 100
FIELD FieldData 4
id 1 100 int
95 31 45 60 80 32 24 35 46 
4 20 53 7 59 54 56 38 68 
64 30 19 9 23 1 51 85 33 
70 92 12 99 67 3 76 72 44 
78 88 37 14 93 82 6 13 2 
97 27 26 40 48 65 11 15 49 
61 90 98 52 89 91 41 81 77 
55 10 87 36 73 39 57 21 22 
66 17 84 58 83 75 25 18 42 
96 74 69 28 100 5 71 50 29 
43 86 79 16 63 62 47 94 34 
8 
type 1 100 int
1 1 1 1 1 1 1 1 1 
1 1 1 1 1 1 1 1 1 
1 1 1 1 1 1 1 1 1 
1 1 1 1 1 1 1 1 1 
1 1 1 1 1 1 1 1 1 
1 1 1 1 1 1 1 1 1 
1 1 1 1 1 1 1 1 1 
1 1 1 1 1 1 1 1 1 
1 1 1 1 1 1 1 1 1 
1 1 1 1 1 1 1 1 1 
1 1 1 1 1 1 1 1 1 
1 
v 3 100 double
0.94647170506 -0.02368531757 0.27917462457 0.73554734115 -0.30920991239 -0.55418501413 0.81109272205 -0.15017610208 -0.062955458912 
0.70994808493 -0.046183014689 -0.080059566569 0.91638214048 -0.059044804882 0.29210539566 0.68354624927 -0.11611086489 -0.080485901793 
0.68959862703 -0.28018769193 -0.061480291208 0.80356437436 -0.13814722196 0.11796451594 0.57292185177 -0.070063215377 -0.13052978442 
0.61422265472 -0.10356156823 -0.043342002277 0.55858149766 -0.14101485096 -0.11934714633 0.85170726292 -0.072766923799 -0.055104159358 
0.36367193766 -0.45387480204 -0.44075343461 0.86292976602 -0.11607196901 -0.21583725864 0.85793014809 -0.24399503998 -0.039114964226 
0.44883362416 -0.029444613062 -0.12853009089 0.88196077862 -0.10274399711 0.50069672441 0.7062832911 -0.14307988862 -0.10078769263 
0.92638320254 -0.12718814265 0.29260934197 0.806764799 -0.091965211654 0.071763400103 0.90743692291 -0.099625093227 0.28026787097 
0.46837437998 -0.080164095959 -0.19999367892 0.75982502566 -0.61488215136 -0.53410582181 0.80325063517 -0.15951910799 0.086155366429 
0.85857398273 -0.073008681697 0.54912932045 0.49438321033 -0.08054125159 -0.075599336918 0.57057288784 -0.086196308091 -0.13811064839 
0.80862016078 -0.13220991904 -0.019354699304 0.53212109296 -0.21907308224 0.10944431344 0.52014208448 -0.09712601429 -0.2530892938 
0.62784860779 -0.26972858666 -0.62357595878 0.64519722844 -0.12798470276 -0.23671734834 0.4075551309 -0.09885248441 -0.21606449525 
0.40542524843 -0.38839771315 -0.69652417523 0.2595152511 -0.32018973849 -0.52526482294 0.38395475298 -0.56069557288 -0.26061696736 
0.72423438708 -0.11571730416 0.37462760845 0.84434207145 -0.13334597059 0.53048605979 0.94127302825 -0.26812634514 0.52186020442 
0.6497223902 -0.12748469371 -0.049971443856 0.53714779653 -0.14847556191 -0.31440146343 0.42027524993 -0.11285041848 -0.24086497432 
0.57212252154 -0.2140372286 -0.078656806858 0.74320855218 -0.36898353353 -0.33196740699 0.6191284505 -0.32281699342 -0.93212904971 
0.3537515334 -0.065265391592 -0.17990029457 0.38377618209 -0.26254000852 -0.43374207388 0.44483972854 -0.096534856347 -0.094501659859 
0.21439020077 -0.11465906092 0.031357112599 0.3970765855 -0.66658527702 -0.28696044326 0.34863778536 -0.33152827439 -0.10627961241 
0.18398413154 -0.27412097665 -0.057666353584 0.19835182655 -0.25229683076 -0.37763750258 0.81877343027 -0.28627189773 0.89074763849 
0.86638720248 -0.19001032327 0.53266769963 0.81982811212 -0.17797153073 0.92402803885 0.68757115334 -0.2998186271 1.0908138504 
0.37449564825 -0.065551418413 -0.21454625736 0.043834252928 -0.38312046828 -0.20612970446 0.37954609641 -0.064362643953 -0.17743551412 
0.64698762349 -0.26786903716 1.0890940454 0.042968697975 -0.037823196485 -0.010257635579 0.048268714649 0.03117637448 0.0007052284764 
0.4715909856 -0.27313057124 -0.28928799601 0.06425031166 -0.036654937449 -0.070363338312 0.15453458706 -0.032667697585 -0.1711050583 
0.43069982794 -0.2033542659 -0.04628031603 0.098566761352 -0.0052717975033 0.037606225505 -0.0062773764923 0.028259563013 0.025433565827 
0.17005541519 -0.062903950578 -0.17669109965 0.016399883844 -0.016157524268 -0.0016797823577 0.78312979225 -0.15266654187 1.1284469181 
0.46614183964 -0.3158518113 1.3587271195 0.071946380172 -0.037130363689 -0.013832922207 0.024495862213 0.062065418507 0.023661053341 
-0.047119831608 -0.577863538 -0.43303306659 -0.17944711616 -0.054398286875 0.20085150045 0.20763157124 -0.2822493016 -0.09328760364 
0.24278724762 -0.71969895968 0.074137432897 0.017089645526 -0.00068895925438 -0.0030389452194 -0.028137933808 0.031806978935 0.1092159954 
0.011437828917 0.026544723155 0.021781118929 0.60692144545 -0.2431943025 1.3886126598 0.060190272387 0.022387203226 -0.0015285150749 
0.023084194233 -0.014032825028 -0.016642124179 0.039048179012 -0.0036697209468 7.7365756192e-05 0.064818709414 -0.13147587668 0.15495245352 
0.70949905306 -0.2355222834 1.5441274998 0.007811485863 -0.00048443261073 4.1399868801e-05 0.010544498517 -0.00092060595894 0.00047896112716 
0.0031668841076 0.006588285303 0.010785067201 0.51615273698 -0.58700184089 1.3772736925 0.0043438318201 -0.0067968535625 0.0397375823 
-0.11695042192 -0.10050892546 0.26699683139 0.0056732293748 -0.00035525173116 0.0016204632038 0.0026067844218 0.0050292521026 0.011976919332 
0.028857970163 0.0037859765378 0.041207187985 0.29506650105 -0.30045604193 1.9965664826 -0.025971439307 -0.010723413416 0.0043224046213 
0.0040000520999 0.0099972183981 0.068964025363 
radius 1 100 double
0.03 0.03 0.03 0.03 0.03 0.03 0.03 0.03 0.03 
0.03 0.03 0.03 0.03 0.03 0.03 0.03 0.03 0.03 
0.03 0.03 0.03 0.03 0.03 0.03 0.03 0.03 0.03 
0.03 0.03 0.03 0.03 0.03 0.03 0.03 0.03 0.03 
0.03 0.03 0.03 0.03 0.03 0.03 0.03 0.03 0.03 
0.03 0.03 0.03 0.03 0.03 0.03 0.03 0.03 0.03 
0.03 0.03 0.03 0.03 0.03 0.03 0.03 0.03 0.03 
0.03 0.03 0.03 0.03 0.03 0.03 0.03 0.03 0.03 
0.03 0.03 0.03 0.03 0.03 0.03 0.03 0.03 0.03 
0.03 0.03 0.03 0.03 0.03 0.03 0.03 0.03 0.03 
0.03 0.03 0.03 0.03 0.03 0.03 0.03 0.03 0.03 
0.03 
