# vtk DataFile Version 5.1
Generated by LIGGGHTS
ASCII
DATASET POLYDATA
POINTS 98 float
-0.00626556 0.295842 -0.581826 0.0609363 0.286555 -0.571785 -0.00133382 0.79291 -0.5752 
-0.0962032 0.819634 -0.57372 0.128297 0.27593 -0.565567 -0.192052 0.33295 -0.55368 
0.180442 0.765001 -0.538526 0.0595721 0.783416 -0.567604 0.122868 0.771201 -0.556262 
-0.155104 0.823228 -0.561812 -0.20795 0.850909 -0.554101 -0.686264 -0.40031 -0.521818 
0.254769 0.279739 -0.534412 -0.25709 0.344519 -0.524898 0.235667 0.755226 -0.517159 
-0.25722 0.835653 -0.518764 0.288082 0.745636 -0.489043 -0.311813 0.855 -0.499647 
0.329177 0.240209 -0.464607 -0.350366 0.358856 -0.468115 0.340218 0.741969 -0.456467 
-0.669301 -0.317369 -0.440231 0.428919 0.272683 -0.431321 -0.316851 0.828872 -0.445445 
-0.43159 0.371242 -0.398653 0.399324 0.723348 -0.399552 -0.422147 0.866261 -0.40477 
-0.626938 -0.274476 -0.365979 0.480353 0.75439 -0.359586 0.477372 0.228896 -0.337983 
-0.45178 0.357584 -0.327941 0.438277 0.712679 -0.349497 -0.420092 0.847415 -0.344689 
-0.472227 0.878851 -0.337235 -0.524507 0.407871 -0.27836 0.538589 0.216588 -0.234764 
-0.524065 0.894252 -0.259739 -0.564707 0.43734 -0.200254 -0.534326 0.893137 -0.195636 
0.544604 0.68548 -0.158402 -0.492802 0.870985 -0.15842 -0.572979 0.915852 -0.147174 
0.567512 0.196399 -0.136549 0.584879 0.723335 -0.131394 -0.535059 0.884655 -0.112411 
-0.58403 0.926926 -0.0872892 -0.616068 -0.0631973 -0.0574056 0.565097 0.174486 -0.0732297 
-0.594963 0.450929 -0.0557011 -0.549185 0.90005 -0.0457969 0.555987 0.149286 -0.00798997 
0.599133 0.190126 0.00207204 0.595972 0.699341 -0.00807347 -0.54911 0.904532 0.0202345 
-0.590098 0.944665 0.0378192 -0.576374 -0.04932 0.129587 -0.542066 0.927298 0.12409 
0.574321 0.165178 0.160626 -0.543884 -0.0551583 0.193255 -0.535125 0.442383 0.193546 
0.562817 0.673795 0.189144 -0.519939 0.931457 0.184452 -0.568435 0.963697 0.169915 
0.54417 0.15002 0.216457 0.52467 0.641427 0.251026 -0.538731 0.971106 0.231766 
-0.51262 -0.0370832 0.274523 -0.538321 0.491132 0.262294 -0.494322 0.959152 0.278319 
0.501848 0.141339 0.313646 -0.497553 0.466494 0.299388 0.497641 0.63507 0.307136 
0.435181 0.603277 0.341047 -0.442537 0.966516 0.346166 0.472261 0.64627 0.360452 
-0.406278 -0.0261026 0.404979 0.433518 0.131505 0.404004 -0.392073 0.468907 0.403122 
-0.424656 0.514731 0.424185 0.392979 0.604953 0.418369 -0.374028 0.0125989 0.461859 
0.350272 0.103917 0.465397 0.358816 0.619009 0.468034 -0.308083 0.513266 0.496115 
0.301622 0.591355 0.500474 -0.286948 0.0107004 0.512824 0.168096 0.554303 0.527469 
-0.212025 0.0297637 0.546806 0.224146 0.0864914 0.539026 -0.141357 0.51536 0.549827 
-0.260612 0.538736 0.538464 -0.198876 0.535715 0.553405 0.219804 0.582882 0.538924 
0.000849086 0.0532511 0.588127 -0.0597166 0.532814 0.569547 0.0207782 0.545678 0.578326 
0.0717621 0.57654 0.58582 0.131316 0.5765 0.570766 
VERTICES 99 98
OFFSETS vtktypeint64
0 1 2 3 4 5 6 7 8 
9 10 11 12 13 14 15 16 17 
18 19 20 21 22 23 24 25 26 
27 28 29 30 31 32 33 34 35 
36 37 38 39 40 41 42 43 44 
45 46 47 48 49 50 51 52 53 
54 55 56 57 58 59 60 61 62 
63 64 65 66 67 68 69 70 71 
72 73 74 75 76 77 78 79 80 
81 82 83 84 85 86 87 88 89 
90 91 92 93 94 95 96 97 98 

CONNECTIVITY vtktypeint64
0 1 2 3 4 5 6 7 8 
9 10 11 12 13 14 15 16 17 
18 19 20 21 22 23 24 25 26 
27 28 29 30 31 32 33 34 35 
36 37 38 39 40 41 42 43 44 
45 46 47 48 49 50 51 52 53 
54 55 56 57 58 59 60 61 62 
63 64 65 66 67 68 69 70 71 
72 73 74 75 76 77 78 79 80 
81 82 83 84 85 86 87 88 89 
90 91 92 93 94 95 96 97 
POINT_DATA 98
FIELD FieldData 4
id 1 98 int
85 54 73 39 59 60 44 75 81 
77 83 86 6 4 48 84 89 21 
53 67 40 74 70 42 46 72 96 
66 2 24 45 58 10 17 32 68 
5 13 18 87 69 29 14 25 100 
16 98 30 93 28 95 35 82 50 
62 22 43 19 41 26 56 63 34 
1 92 79 90 31 8 64 23 15 
9 47 65 49 80 55 33 57 61 
78 3 91 7 51 12 37 38 20 
99 27 52 88 76 97 11 36 
type 1 98 int
1 1 1 1 1 1 1 1 1 
1 1 1 1 1 1 1 1 1 
1 1 1 1 1 1 1 1 1 
1 1 1 1 1 1 1 1 1 
1 1 1 1 1 1 1 1 1 
1 1 1 1 1 1 1 1 1 
1 1 1 1 1 1 1 1 1 
1 1 1 1 1 1 1 1 1 
1 1 1 1 1 1 1 1 1 
1 1 1 1 1 1 1 1 1 
1 1 1 1 1 1 1 1 
v 3 98 double
2.2258650506 0.019281488712 0.20380545981 2.3046202266 -0.38304462983 0.29237293792 1.84253014 -0.17135543774 -0.0086130287417 
1.8267992704 -0.43819329796 -0.31225199214 2.1843292445 -0.48843834736 0.3661762808 2.0637188951 -0.53243306314 -0.87563379611 
1.8254905716 -0.35751127745 0.75970734101 1.8386714975 -0.39929358368 0.31402114917 1.9128877711 -0.38328288721 0.40089890139 
1.8484669592 -0.28758763886 -0.19053142895 1.7728175388 -0.11926958066 -0.76519870534 -0.34761733349 -2.6448506862 -2.2642655265 
2.1430045098 -0.49868485282 0.80898647721 2.1299517387 -0.22919674873 -0.83210065761 1.741562392 -0.36097334998 0.76422968498 
1.6767355751 -0.030384941366 -0.97142727258 1.6224907319 -0.18237901474 1.1529150285 1.5293996818 -0.36998991173 -1.1139468019 
1.9061666004 -0.31862605141 1.3740950498 1.7860673049 -0.45514758636 -1.3421220534 1.5729826878 -0.3501758786 1.2320490636 
-0.35754166992 -2.3828864146 -2.4304398492 1.1510451708 -0.062647291036 1.7914560158 1.4677152237 -0.30853830891 -1.1030653938 
1.4752202808 -0.66603547543 -1.8325207295 1.3278701229 -0.09100178058 1.5430727563 1.4028828783 -0.19243658473 -1.4948073323 
-0.25780260374 -2.0070337108 -2.3129288917 1.1508280794 -0.23932518868 1.4708897649 1.4167113981 -0.29498190406 1.7649863742 
1.1147088856 -0.19515755084 -1.8606261544 1.2430770809 -0.30227191821 1.5850614915 1.1100955514 -0.23150493329 -1.6679384678 
1.0663590237 -0.25861988342 -1.4750168138 0.93517624333 -0.70777373476 -1.965524901 1.0516778954 -0.28294002217 2.0054117736 
0.83027936286 -0.37781321448 -1.8115640199 0.8171588596 -0.051828251542 -2.0033446337 0.72220655941 -0.29875351043 -1.7916277978 
0.30137371277 -0.1205102583 2.0543728135 0.62947614648 -0.28172267589 -1.6782177825 0.63621652087 -0.11800020279 -1.8867023698 
0.57840060172 -0.021785962013 2.2561521627 0.28766556877 -0.12250278976 2.1377576682 0.34540930793 -0.38581654811 -1.8264742824 
0.22934871977 -0.29336736271 -1.9119726444 -0.29807269166 -0.72912507241 -2.1788426723 0.44474017469 -0.20078171291 2.2255955388 
0.42033466615 -0.36276352484 -2.1779583957 0.18709543931 -0.26217336109 -1.8438252667 -0.25589474846 -0.22682699636 2.1327179196 
-0.29700640872 -0.090676139719 2.2322267217 0.20071440144 -0.69895871533 2.0541594418 -0.071231245753 -0.34378799816 -1.8812210223 
-0.13547309381 -0.36017228209 -1.9551054465 -0.60685633358 -0.038578853624 -2.3056295041 -0.3053907181 -0.28815882314 -1.7637241253 
-0.68952352698 0.22750034737 2.0605668703 -0.96096679213 -0.3046025267 -2.0955980297 -0.63024323014 -0.53757797115 -2.0164470155 
-0.78000985336 -0.23723274663 1.8049047155 -0.47519109314 -0.33906444856 -1.6087101671 -0.53496698276 -0.50701501744 -1.8284847771 
-0.85996717033 -0.41504669665 2.1681998977 -0.9861365954 -0.5444519119 1.8018539985 -0.58138741254 -0.35926760896 -1.6205369799 
-1.0466236055 -0.059531225993 -1.9825096095 -0.93917842285 -0.15732548973 -2.0750700392 -0.94246944773 -0.075972771781 -1.7806617279 
-1.4449953499 -0.25120029792 1.7569956436 -0.93896880723 0.0078794452055 -1.9549539407 -1.1902020956 -0.31267489499 1.5933218414 
-1.1637312126 -0.34941455537 1.3859534779 -1.1519331732 -0.30497208678 -1.5165556875 -1.1882937529 -0.44633045811 1.6473993623 
-1.3899245914 -0.11769472233 -1.6971537858 -1.4117964917 -0.70689599424 1.6660480741 -1.3323022125 -0.23448181973 -1.4494192528 
-1.5930059406 -0.80413282162 -1.3990579191 -1.4661821955 -0.31174219861 1.2216037541 -1.9126109215 -0.38159506953 -1.3060501089 
-1.8783859074 -0.49135300064 1.298956909 -1.584808685 -0.49481956239 1.2108237067 -1.7368040161 -0.18694394209 -1.2516531814 
-1.8022833412 -0.072954305669 0.98009851794 -1.9168466299 -0.0039219800535 -1.3767463132 -1.7083994582 -0.38196855132 0.53660682712 
-2.2288315332 -0.26692088122 -0.8070522765 -2.1421608584 -0.29793812982 0.92889244528 -1.9981435659 -0.16619254919 -0.50939034147 
-1.7500582016 -0.52201345501 -0.88965707836 -2.0314186029 -0.31764595157 -0.80429537102 -1.8046249601 -0.29327596966 0.76188530763 
-2.3156024979 -0.058215044042 -0.29321686199 -2.0779633827 -0.22970626245 -0.18842160187 -1.9380957055 -0.363050276 0.22564467806 
-2.0253365056 -0.30358165384 0.29182114301 -2.0358610025 -0.23772165822 0.29558724326 
radius 1 98 double
0.03 0.03 0.03 0.03 0.03 0.03 0.03 0.03 0.03 
0.03 0.03 0.03 0.03 0.03 0.03 0.03 0.03 0.03 
0.03 0.03 0.03 0.03 0.03 0.03 0.03 0.03 0.03 
0.03 0.03 0.03 0.03 0.03 0.03 0.03 0.03 0.03 
0.03 0.03 0.03 0.03 0.03 0.03 0.03 0.03 0.03 
0.03 0.03 0.03 0.03 0.03 0.03 0.03 0.03 0.03 
0.03 0.03 0.03 0.03 0.03 0.03 0.03 0.03 0.03 
0.03 0.03 0.03 0.03 0.03 0.03 0.03 0.03 0.03 
0.03 0.03 0.03 0.03 0.03 0.03 0.03 0.03 0.03 
0.03 0.03 0.03 0.03 0.03 0.03 0.03 0.03 0.03 
0.03 0.03 0.03 0.03 0.03 0.03 0.03 0.03 
