# vtk DataFile Version 5.1
Generated by LIGGGHTS
ASCII
DATASET POLYDATA
POINTS 100 float
-0.00231655 1.81953 -0.586014 -0.0545716 1.84906 -0.585626 0.127798 1.77683 -0.550956 
-0.0675075 1.8031 -0.549253 0.0527607 1.79195 -0.563918 -0.130274 1.82225 -0.557974 
-0.190773 1.84535 -0.552099 -0.239571 1.88321 -0.554328 0.0713197 1.76758 -0.512325 
0.182716 1.76714 -0.528818 0.240641 1.75755 -0.506368 -0.0106712 1.78638 -0.536704 
-0.240286 1.83694 -0.516137 0.102134 1.81888 -0.516703 0.22342 1.815 -0.505074 
0.132957 1.7556 -0.494866 -0.110447 1.79556 -0.508027 0.00112272 1.77976 -0.478251 
0.176155 1.79349 -0.474707 -0.168668 1.81014 -0.508845 -0.0411611 1.82031 -0.497729 
0.0555762 1.81487 -0.478918 -0.186025 1.86461 -0.490658 -0.124136 1.85112 -0.489964 
0.203882 1.7418 -0.461643 0.282272 1.74176 -0.458973 0.0849149 1.76823 -0.453111 
0.344601 1.74945 -0.449257 -0.140021 1.80391 -0.456495 -0.0778375 1.79482 -0.457669 
-0.272781 1.82437 -0.455453 -0.213646 1.81084 -0.46914 -0.326632 1.85016 -0.463068 
-0.242383 1.87631 -0.470912 0.239943 1.73757 -0.413083 0.149965 1.75654 -0.435259 
0.397443 1.74775 -0.418486 0.031086 1.79402 -0.428269 0.205799 1.78621 -0.421314 
-0.369841 1.85631 -0.421826 -0.117304 1.84605 -0.420336 0.0282408 1.85297 -0.439088 
-0.276528 1.87382 -0.421447 -0.197392 1.8724 -0.431408 0.309889 1.72549 -0.405163 
0.345907 1.77146 -0.388223 0.283141 1.77904 -0.409318 -0.31775 1.83088 -0.406338 
-0.186624 1.81549 -0.415773 -0.0624982 1.82493 -0.408091 0.370767 1.719 -0.37308 
-0.261953 1.8279 -0.384485 -0.399477 1.85325 -0.369747 -0.20738 1.84683 -0.368258 
-0.149001 1.86031 -0.371426 -0.452864 1.88932 -0.36919 -0.341782 1.86952 -0.367227 
-0.278494 1.89629 -0.365704 0.416693 1.7128 -0.334971 -0.295407 1.84542 -0.337706 
-0.403884 1.90377 -0.337695 0.360315 1.71006 -0.314628 0.467303 1.71127 -0.30278 
-0.409486 1.85317 -0.305953 -0.349845 1.8463 -0.312496 -0.464511 1.87664 -0.311139 
-0.308323 1.88603 -0.295254 -0.239359 1.8775 -0.323884 0.425358 1.69415 -0.26346 
-0.370962 1.89684 -0.288013 -0.428337 1.90457 -0.272265 -0.392945 1.95224 -0.280882 
0.498535 1.70707 -0.251687 -0.469763 1.86602 -0.25232 -0.397768 1.85931 -0.247432 
-0.518782 1.89652 -0.235721 -0.335637 1.88486 -0.241017 0.481245 1.68619 -0.198163 
-0.464275 1.91746 -0.221919 -0.385961 1.91483 -0.228004 -0.433169 1.86902 -0.199975 
-0.49101 1.87693 -0.186132 -0.387324 1.89509 -0.171363 0.531066 1.67939 -0.132051 
-0.536319 1.89997 -0.154253 -0.442297 1.91854 -0.166101 0.473164 1.66893 -0.120313 
-0.47213 1.88246 -0.128574 -0.417934 1.90264 -0.112591 0.568825 1.69749 -0.0889661 
-0.522405 1.89242 -0.0963794 0.546795 1.66747 -0.040977 -0.469281 1.89137 -0.0685126 
-0.522824 1.90125 -0.0370335 0.497793 1.65132 -0.00132659 0.535184 1.64925 0.0456116 
0.536148 1.64537 0.105497 0.514072 1.63254 0.159794 0.553787 1.66485 0.19164 
0.449911 1.64968 0.387408 
VERTICES 101 100
OFFSETS vtktypeint64
0 1 2 3 4 5 6 7 8 
9 10 11 12 13 14 15 16 17 
18 19 20 21 22 23 24 25 26 
27 28 29 30 31 32 33 34 35 
36 37 38 39 40 41 42 43 44 
45 46 47 48 49 50 51 52 53 
54 55 56 57 58 59 60 61 62 
63 64 65 66 67 68 69 70 71 
72 73 74 75 76 77 78 79 80 
81 82 83 84 85 86 87 88 89 
90 91 92 93 94 95 96 97 98 
99 100 
CONNECTIVITY vtktypeint64
0 1 2 3 4 5 6 7 8 
9 10 11 12 13 14 15 16 17 
18 19 20 21 22 23 24 25 26 
27 28 29 30 31 32 33 34 35 
36 37 38 39 40 41 42 43 44 
45 46 47 48 49 50 51 52 53 
54 55 56 57 58 59 60 61 62 
63 64 65 66 67 68 69 70 71 
72 73 74 75 76 77 78 79 80 
81 82 83 84 85 86 87 88 89 
90 91 92 93 94 95 96 97 98 
99 
POINT_DATA 100
FIELD FieldData 4
id 1 100 int
31 76 45 20 32 7 56 2 46 
60 24 23 72 59 54 4 33 93 
53 9 99 67 3 12 68 35 85 
95 97 27 92 82 44 15 14 6 
80 26 70 48 91 13 65 11 1 
19 30 40 52 55 64 89 81 57 
36 10 77 87 38 58 21 78 51 
73 39 17 75 25 88 84 96 83 
37 18 42 28 69 61 5 100 29 
50 43 90 79 16 49 63 62 98 
47 41 34 8 22 66 74 86 71 
94 
type 1 100 int
1 1 1 1 1 1 1 1 1 
1 1 1 1 1 1 1 1 1 
1 1 1 1 1 1 1 1 1 
1 1 1 1 1 1 1 1 1 
1 1 1 1 1 1 1 1 1 
1 1 1 1 1 1 1 1 1 
1 1 1 1 1 1 1 1 1 
1 1 1 1 1 1 1 1 1 
1 1 1 1 1 1 1 1 1 
1 1 1 1 1 1 1 1 1 
1 1 1 1 1 1 1 1 1 
1 
v 3 100 double
0.70037185953 -0.013366036474 0.013060196006 0.4867013549 -0.34766200549 -0.35590220127 0.71315651337 -0.12480709226 0.11556156595 
0.59184600874 -0.11965002523 -0.021253876232 0.66728110584 -0.15382901981 0.12378935918 0.5257627145 -0.037950291343 -0.10556518408 
0.47660217882 -0.12260220527 -0.16747859204 0.7708247217 -0.16142693291 -0.29907863708 0.72307794257 -0.12591351976 0.1168276412 
0.67469311921 -0.097335777792 0.22264721057 0.62280916499 -0.19312876169 0.39909194906 0.56266387688 -0.045385933361 -0.029981509069 
0.43516266187 -0.071277629468 -0.1956759788 0.79887312515 -0.16186768581 0.22541095257 0.7737953137 -0.18242694261 0.31272368382 
0.68617377852 -0.073955811862 0.1606020549 0.49760290489 -0.064230238615 -0.10959618418 0.56812670396 -0.10987542927 -0.033752644958 
0.78058223422 -0.049898549925 0.38472155616 0.50835956373 -0.10466073203 -0.16929333629 0.54085357214 -0.058487927708 -0.033612339216 
0.6917096657 -0.13137982716 0.1099495114 0.51812703173 -0.12256268828 -0.1058921989 0.47452292789 -0.070475564463 -0.10609264949 
0.65800429007 -0.16994960858 0.44023407984 0.68446254028 -0.13473579379 0.51165145682 0.73768134914 -0.11825623059 0.10703675111 
0.85602384844 -0.23456370187 0.72156060839 0.44968569619 -0.08614080235 -0.13563640062 0.48129915035 -0.081472363368 -0.10029119716 
0.49796346812 -0.15027283402 -0.041876398963 0.46502224766 -0.084166158336 -0.21851242405 0.42028689343 -0.22561123759 0.10335273641 
0.50350997306 -0.17068353672 -0.10727685238 0.85224955078 -0.20062236157 0.28472729878 0.51805416624 -0.092045661202 0.19822445622 
0.86403016181 -0.25695118926 0.74981910383 0.49461685438 -0.11650984832 0.018640953579 0.73271538304 -0.23064572816 0.54653714299 
0.21182294551 -0.055241740318 -0.12622598013 0.61964291416 -0.2146158411 -0.097909632943 0.67598675385 -0.091517666743 0.10466483555 
0.29990954969 -0.054884737228 -0.22703593863 0.53413223347 -0.060100460881 -0.13121354865 0.72467630827 -0.17992575897 0.66065384299 
0.69481211239 -0.13960569713 0.59824901013 0.80136923884 -0.15445697687 0.47408082231 0.24703219225 -0.057837050503 -0.24856200269 
0.46865516347 -0.097305841419 -0.21821491766 0.65574966647 -0.1335973929 -0.12075370934 0.64662429169 -0.13260375702 0.7006215981 
0.21133578912 -0.041886244644 -0.15477290927 0.23891631467 -0.11124281707 -0.11496052638 0.28732171233 -0.15953062097 -0.27275632688 
0.32407397312 -0.31569634177 -0.26064626971 0.19488024138 -0.13916365087 -0.16326423838 0.25340069283 -0.15438693924 -0.14919991678 
0.043496253276 -0.14165448453 -0.17843798458 0.57073500308 -0.16367995488 0.78763518733 -0.0045703817026 -0.15717079127 -0.25642834054 
0.18731110895 -0.077318233672 -0.17858315436 0.527399719 -0.14062480837 0.67168843434 0.48747047708 -0.33231068437 0.91502799807 
0.069469604295 -0.022739355894 -0.1144912486 0.061315823768 -0.020517258165 -0.12055085498 0.063281264478 -0.0057486060466 -0.13687524359 
0.26808692966 -0.26901958987 -0.041296487229 -0.031092762339 -0.29358874787 -0.13468937086 0.47799691922 -0.15405544913 0.90455206008 
0.089700805676 -0.016112645871 -0.10574643928 0.079402115493 -0.034594373697 -0.1335706202 0.089736712845 -0.029054603739 -0.058488665363 
0.49771451549 -0.080448081737 0.93553582314 0.06617695906 -0.02465497316 -0.14078230858 0.081746502275 -0.023492477913 -0.11495121142 
0.072889854936 -0.039086342675 -0.095008089145 0.0674647152 -0.018653370265 -0.089969005814 0.74873028917 -0.13411067306 0.99573785138 
0.078246171858 -0.052614019068 -0.096104263018 0.062615282335 -0.033686930587 -0.073620252605 0.06783719643 -0.023535672819 -0.12556214772 
0.074667425269 -0.021593789645 -0.1046213257 0.025977614471 -0.013570730777 -0.067576709698 0.25200448381 -0.13707827171 1.25545313 
0.10159484691 -0.063795396088 -0.037974128286 0.0029462588197 -0.069338026289 -0.066492762524 0.24989559433 -0.1836259721 1.2019170533 
-0.034794878697 -9.1464041134e-05 -0.02985944351 -0.014940108162 -0.028011719523 -0.061697231868 0.13367704075 -0.27705523399 1.4334948422 
0.0033979617957 -0.0013224590222 -0.0063405436494 0.18528252108 -0.25488637109 1.5021746538 0.0086958718259 0.00030189878749 -0.016415230228 
-0.016495162374 0.00081533312805 -0.0068631396616 -0.082898075236 -0.19203814654 1.2452345213 -0.28728887234 -0.24291083779 1.4112777 
-0.28381679262 -0.30451714981 1.4102857165 -0.44716184702 -0.15548420229 1.3793981158 -0.70122828394 -0.31664524329 1.6612789308 
-1.0430455389 -0.084476827646 1.5818973182 
radius 1 100 double
0.03 0.03 0.03 0.03 0.03 0.03 0.03 0.03 0.03 
0.03 0.03 0.03 0.03 0.03 0.03 0.03 0.03 0.03 
0.03 0.03 0.03 0.03 0.03 0.03 0.03 0.03 0.03 
0.03 0.03 0.03 0.03 0.03 0.03 0.03 0.03 0.03 
0.03 0.03 0.03 0.03 0.03 0.03 0.03 0.03 0.03 
0.03 0.03 0.03 0.03 0.03 0.03 0.03 0.03 0.03 
0.03 0.03 0.03 0.03 0.03 0.03 0.03 0.03 0.03 
0.03 0.03 0.03 0.03 0.03 0.03 0.03 0.03 0.03 
0.03 0.03 0.03 0.03 0.03 0.03 0.03 0.03 0.03 
0.03 0.03 0.03 0.03 0.03 0.03 0.03 0.03 0.03 
0.03 0.03 0.03 0.03 0.03 0.03 0.03 0.03 0.03 
0.03 
