# vtk DataFile Version 5.1
Generated by LIGGGHTS
ASCII
DATASET POLYDATA
POINTS 100 float
0.0355861 1.85087 -0.603975 -0.0753465 1.83001 -0.577437 0.0892518 1.82355 -0.589112 
-0.0929676 1.88594 -0.599023 -0.040541 1.79488 -0.543479 -0.188736 1.83124 -0.542411 
-0.254369 1.85382 -0.523608 -0.0846223 1.84571 -0.520008 -0.146263 1.80408 -0.509882 
-0.0877706 1.79044 -0.496998 -0.217226 1.81943 -0.490784 -0.00721891 1.83519 -0.505027 
-0.346614 1.89687 -0.489976 -0.0284761 1.78528 -0.47461 -0.315843 1.84843 -0.472981 
-0.204459 1.86723 -0.456153 -0.279937 1.91138 -0.463296 -0.310197 2.07654 -0.446707 
-0.410321 2.0955 -0.446487 -0.348778 2.11526 -0.473682 -0.096337 1.80271 -0.438942 
-0.268124 1.82061 -0.449751 -0.183109 1.81099 -0.441959 -0.0326431 1.81933 -0.424298 
-0.371546 1.86357 -0.440627 -0.335051 1.90663 -0.419127 -0.375918 1.95133 -0.419858 
-0.257796 1.95652 -0.419093 -0.329582 1.99762 -0.432176 -0.366209 2.05474 -0.442105 
-0.25353 2.12645 -0.435669 -0.30862 2.14951 -0.441394 -0.341928 1.83528 -0.396666 
-0.233998 1.83704 -0.403137 -0.13843 1.83821 -0.411734 -0.436395 1.89041 -0.396353 
-0.205334 1.89482 -0.402831 -0.433392 1.95009 -0.402045 -0.162204 1.93469 -0.388021 
-0.282842 2.00944 -0.389995 -0.414517 2.04175 -0.408222 -0.264279 2.07437 -0.407928 
-0.442167 2.09379 -0.395251 -0.347618 2.1066 -0.410357 -0.394584 2.14074 -0.393693 
-0.288148 1.83251 -0.370033 -0.395313 1.85234 -0.374663 -0.186181 1.84952 -0.368133 
-0.340838 1.88582 -0.363099 -0.308404 1.95008 -0.387478 -0.371426 1.95736 -0.357978 
-0.25762 1.96399 -0.358705 -0.423541 1.99608 -0.364664 -0.360125 2.01408 -0.38145 
-0.389396 2.07208 -0.362836 -0.330185 2.08029 -0.357631 -0.283454 2.11611 -0.369194 
-0.224752 2.12584 -0.379889 -0.487254 2.14736 -0.344841 -0.337681 2.14949 -0.359195 
-0.267955 2.175 -0.369866 -0.260148 1.86474 -0.327754 -0.449682 1.87504 -0.339761 
-0.396905 1.90456 -0.345295 -0.301233 1.91222 -0.326412 -0.298288 2.01987 -0.32954 
-0.440364 2.05036 -0.338394 -0.254284 2.05891 -0.350688 -0.180943 2.20876 -0.337185 
-0.361273 1.84617 -0.322759 -0.358514 1.92457 -0.303886 -0.214973 1.9043 -0.327129 
-0.424787 1.95129 -0.319693 -0.281509 1.96271 -0.300036 -0.363775 2.01292 -0.321488 
-0.271089 2.06241 -0.29315 -0.34061 2.08928 -0.299227 -0.249428 2.13398 -0.322118 
-0.443911 1.85969 -0.281884 -0.390317 1.88457 -0.270693 -0.332363 1.86959 -0.275111 
-0.449292 1.91908 -0.274707 -0.292315 1.91321 -0.265195 -0.382892 1.97393 -0.27995 
-0.321321 2.04081 -0.268387 -0.419013 2.05982 -0.283118 -0.444429 2.11325 -0.272494 
-0.385853 2.12728 -0.279404 -0.260385 2.11469 -0.265596 -0.32563 2.14493 -0.280846 
-0.349383 1.91509 -0.238938 -0.32791 1.97178 -0.253305 -0.370018 2.07082 -0.250265 
-0.42207 1.86476 -0.223625 -0.407662 1.93325 -0.217693 -0.30226 2.13263 -0.226535 
-0.465905 1.89244 -0.1917 -0.369277 1.90585 -0.180782 -0.49968 1.88352 -0.142865 
-0.425784 1.8928 -0.13112 
VERTICES 101 100
OFFSETS vtktypeint64
0 1 2 3 4 5 6 7 8 
9 10 11 12 13 14 15 16 17 
18 19 20 21 22 23 24 25 26 
27 28 29 30 31 32 33 34 35 
36 37 38 39 40 41 42 43 44 
45 46 47 48 49 50 51 52 53 
54 55 56 57 58 59 60 61 62 
63 64 65 66 67 68 69 70 71 
72 73 74 75 76 77 78 79 80 
81 82 83 84 85 86 87 88 89 
90 91 92 93 94 95 96 97 98 
99 100 
CONNECTIVITY vtktypeint64
0 1 2 3 4 5 6 7 8 
9 10 11 12 13 14 15 16 17 
18 19 20 21 22 23 24 25 26 
27 28 29 30 31 32 33 34 35 
36 37 38 39 40 41 42 43 44 
45 46 47 48 49 50 51 52 53 
54 55 56 57 58 59 60 61 62 
63 64 65 66 67 68 69 70 71 
72 73 74 75 76 77 78 79 80 
81 82 83 84 85 86 87 88 89 
90 91 92 93 94 95 96 97 98 
99 
POINT_DATA 100
FIELD FieldData 4
id 1 100 int
71 98 94 51 66 38 95 86 88 
90 80 74 45 41 60 37 24 56 
92 44 49 35 64 22 32 4 20 
30 53 7 72 65 46 68 61 82 
19 9 78 54 40 31 10 3 48 
85 33 1 93 70 12 6 81 59 
77 23 11 76 75 15 13 26 73 
52 27 67 17 99 2 97 91 14 
96 55 84 57 89 36 18 42 39 
28 69 5 43 16 21 83 58 87 
29 62 100 50 79 25 47 63 8 
34 
type 1 100 int
1 1 1 1 1 1 1 1 1 
1 1 1 1 1 1 1 1 1 
1 1 1 1 1 1 1 1 1 
1 1 1 1 1 1 1 1 1 
1 1 1 1 1 1 1 1 1 
1 1 1 1 1 1 1 1 1 
1 1 1 1 1 1 1 1 1 
1 1 1 1 1 1 1 1 1 
1 1 1 1 1 1 1 1 1 
1 1 1 1 1 1 1 1 1 
1 1 1 1 1 1 1 1 1 
1 
v 3 100 double
1.3210926824 0.088715399413 0.28923933483 1.3386397229 -0.03392250929 -0.25849912234 1.5617080391 0.13533097544 -0.1062097845 
0.86254493093 0.003662826883 -0.10482173727 1.3487858825 -0.1551871142 -0.32826039077 0.83208712498 -0.15357410865 -0.33850896767 
0.75894037092 -0.20851635149 -0.22800999237 1.758198422 0.013837084992 -0.34628398387 0.79264746482 -0.080018908418 -0.22502463794 
0.94847162373 -0.14005192283 -0.66187120624 0.88713822278 -0.17526589395 -0.31434779554 1.7583624958 -0.40091906912 -0.53688223703 
0.49380063118 -0.023159529239 0.029416576229 1.0147354921 -0.23979799109 -0.64710738448 0.48780875052 -0.30899791786 -0.48586887186 
0.97669995519 -0.13394192585 -0.37658290213 0.78359115127 0.083035835243 -0.46305800884 -0.066455888264 -0.1009158743 0.0323036476 
-0.0069784921714 -0.53011318707 0.30418652035 -0.65699951323 -0.42408439133 0.13279814837 0.88895822369 -0.46630354878 -0.53205398857 
0.53587582955 -0.087833637773 -0.40410484616 0.84762634045 -0.13806482728 -0.2857787856 1.5308000963 -1.5225228989 -0.4158142848 
0.34848362815 -0.34148437516 -0.0020710618895 0.76511624331 -0.49027380143 -0.058059432272 0.11509287875 -0.98825649058 -0.19680209507 
0.74982300533 -0.25015689403 -0.36206929421 0.12747273528 -1.076391314 -0.068553005495 0.065895707331 -0.4870661429 0.23713727643 
-0.26933137222 -0.18371477304 -0.16995603898 -0.38982455293 -0.40521753211 0.090109907175 0.54668823919 -0.24500566762 -0.026414302787 
0.59641811491 -0.4565634237 -0.34233502364 1.1892134137 -0.62996865445 -0.21955085617 0.35438418538 -0.50531122072 -0.031725830641 
0.57160255269 -0.15530008781 -0.37739819724 0.17325027523 -0.52050807263 -0.35515953825 1.1120400673 -0.66570420702 -0.14862713525 
0.46159458699 -1.0985473489 -0.16733655582 0.090720310568 -0.55418637176 0.30079558842 -0.13305920686 -0.22293971742 0.035929203693 
-0.24771651804 -0.72903787796 0.16924960195 -0.096183188114 -0.2023407794 0.082155303706 -0.22829299518 -0.45716708461 0.44185464615 
0.66176214453 -0.086153796028 -0.15977759821 0.53003621115 -0.14058053289 0.1687458778 0.55386341654 -0.25005122179 -0.42437187372 
0.32476619822 -0.39588261003 -0.25688617308 0.58536236277 -0.18816555741 -0.51766413333 0.35710668217 -0.22968652166 0.00037075785219 
0.51077536611 -0.83531196161 0.082949254159 0.015835942168 -0.94057985973 0.24586702099 0.083127762171 -1.2135811098 -0.0036705890875 
0.21017270652 -0.59681260535 0.15950505302 0.2495679364 -0.64848366874 -0.034995304565 -0.094454689126 -0.089788708221 0.16978864286 
-0.0001678107079 0.13368093736 -0.19663093036 0.28383906359 -0.40202431361 1.0453041062 -0.1284762733 -0.31511240134 0.37750290143 
0.49243479713 -0.40402418619 -0.040147580483 0.3932945161 0.11537595708 -0.069848046474 0.28522093692 -0.19730331033 0.064762250332 
0.42863023891 -0.22593486232 0.49535864678 0.26771399625 -0.44488283373 -0.09147833434 0.37857609633 -1.088314041 -0.09538397716 
0.19560188767 -0.44915485615 -0.29044025176 -0.17951205153 -0.35974009496 0.0036172610037 -0.10105938576 0.021267970857 0.78614498377 
0.069209969453 -0.043866878181 -0.29257910789 0.58356748039 -0.49924991143 0.45127703817 0.56199650546 -0.023329665733 -0.51481408832 
-0.17464885579 -0.69290689045 0.20934225955 -0.050650473526 -0.24416918975 -0.1846779402 0.13220402605 -1.0569311096 0.029257979823 
-0.24194326361 -0.39752838357 -0.016679798949 -0.12154142938 -0.38484010979 -0.12986728162 0.3731407714 -0.5651073705 -0.18957361935 
-0.16201184629 0.039907689732 0.20657107737 -0.088289611732 -0.12552834185 0.31914506452 -0.11639980045 -0.09437042172 -0.10769701424 
-0.25394719712 0.0094272406975 0.3128499065 -0.17936344872 -0.086856785965 0.10764700484 0.09316713998 -0.83688299686 0.26200996204 
-0.24274883595 -0.49710035696 -0.14336900503 0.086545829 -0.44272511434 -0.24110899521 0.20742219806 -0.40304192356 -0.10639562249 
0.32341012687 -0.73002795771 0.11441105918 -0.10809549799 -0.36344575688 -0.12106175329 0.37677370456 -0.39771982791 -0.29329838952 
0.063389647006 -0.43146101116 0.47514374493 0.091787539067 -0.57844397524 0.23746044479 -0.04629781854 -0.18340363792 -0.10870405098 
-0.38117514549 0.060028026496 0.16997940199 -0.79436074891 -0.5064509834 0.31830357489 0.080124133086 -0.066316556608 -0.058786615217 
-0.37666803859 -0.33913654749 0.61193346915 -0.38610912644 -0.2122482316 0.1909409544 -0.24364093645 0.13065442529 0.80337272347 
-0.54113922531 -0.02350712148 0.58989646278 
radius 1 100 double
0.03 0.03 0.03 0.03 0.03 0.03 0.03 0.03 0.03 
0.03 0.03 0.03 0.03 0.03 0.03 0.03 0.03 0.03 
0.03 0.03 0.03 0.03 0.03 0.03 0.03 0.03 0.03 
0.03 0.03 0.03 0.03 0.03 0.03 0.03 0.03 0.03 
0.03 0.03 0.03 0.03 0.03 0.03 0.03 0.03 0.03 
0.03 0.03 0.03 0.03 0.03 0.03 0.03 0.03 0.03 
0.03 0.03 0.03 0.03 0.03 0.03 0.03 0.03 0.03 
0.03 0.03 0.03 0.03 0.03 0.03 0.03 0.03 0.03 
0.03 0.03 0.03 0.03 0.03 0.03 0.03 0.03 0.03 
0.03 0.03 0.03 0.03 0.03 0.03 0.03 0.03 0.03 
0.03 0.03 0.03 0.03 0.03 0.03 0.03 0.03 0.03 
0.03 
