# vtk DataFile Version 5.1
Generated by LIGGGHTS
ASCII
DATASET POLYDATA
POINTS 53 float
-0.722443 -0.745178 -0.741403 -0.721688 -0.633103 -0.667273 0.0975958 0.278159 -0.567965 
-0.0461507 0.307451 -0.581842 0.0235604 0.289892 -0.575674 -0.0970526 0.340525 -0.590268 
-0.66507 -0.587744 -0.578434 0.156134 0.270696 -0.555538 0.212896 0.26542 -0.536064 
-0.0915693 0.292081 -0.545765 -0.20665 0.332114 -0.547382 -0.150441 0.319806 -0.564649 
0.284161 0.277791 -0.525034 0.263573 0.235758 -0.486771 0.325367 0.238206 -0.465511 
-0.308765 0.340906 -0.496198 -0.637135 -0.459706 -0.474663 0.37273 0.227377 -0.430213 
0.42585 0.245192 -0.406601 -0.636448 -0.410957 -0.422237 0.454356 0.188371 -0.287558 
0.506469 0.218207 -0.291375 -0.634615 -0.2629 -0.306256 0.521079 0.197936 -0.230778 
-0.640531 -0.151039 -0.222308 -0.625541 -0.120098 -0.16188 0.575718 0.202254 -0.128892 
0.569806 0.171791 -0.0484656 0.568278 0.160494 0.0120233 -0.565764 -0.0977938 0.00838719 
0.592879 0.187803 0.0654496 -0.593277 -0.0589905 0.047114 -0.577228 -0.0480252 0.131516 
0.567586 0.181409 0.191235 -0.558477 -0.0278943 0.216184 0.539082 0.167475 0.25511 
0.445066 0.100511 0.329197 0.501811 0.138518 0.313303 -0.517771 -0.0151855 0.307 
0.437773 0.115812 0.389929 -0.421102 -0.0199124 0.396432 0.389806 0.113888 0.438909 
-0.292052 -0.0112211 0.490559 -0.349704 0.0242901 0.487047 -0.190975 -0.0115265 0.501819 
-0.241128 0.0116919 0.527778 0.217202 0.0859124 0.543065 0.272333 0.0916643 0.518806 
-0.164467 0.0135997 0.54971 -0.0970983 0.022121 0.565534 -0.0387405 0.0339492 0.575454 
0.0170745 0.0568223 0.587593 0.0762524 0.0609901 0.576104 
VERTICES 54 53
OFFSETS vtktypeint64
0 1 2 3 4 5 6 7 8 
9 10 11 12 13 14 15 16 17 
18 19 20 21 22 23 24 25 26 
27 28 29 30 31 32 33 34 35 
36 37 38 39 40 41 42 43 44 
45 46 47 48 49 50 51 52 53 

CONNECTIVITY vtktypeint64
0 1 2 3 4 5 6 7 8 
9 10 11 12 13 14 15 16 17 
18 19 20 21 22 23 24 25 26 
27 28 29 30 31 32 33 34 35 
36 37 38 39 40 41 42 43 44 
45 46 47 48 49 50 51 52 
POINT_DATA 53
FIELD FieldData 4
id 1 53 int
27 20 62 34 28 43 76 16 50 
63 8 79 100 29 69 47 97 18 
17 11 5 96 36 10 12 52 42 
21 84 3 83 7 57 77 9 39 
75 73 65 81 15 44 92 56 25 
82 89 48 87 58 2 72 40 
type 1 53 int
1 1 1 1 1 1 1 1 1 
1 1 1 1 1 1 1 1 1 
1 1 1 1 1 1 1 1 1 
1 1 1 1 1 1 1 1 1 
1 1 1 1 1 1 1 1 1 
1 1 1 1 1 1 1 1 
v 3 53 double
-0.33012956942 -3.7372496534 -2.1757143002 -0.36763351087 -3.41914516 -2.1704175442 1.9322154049 -0.34064664842 0.27087269947 
1.919480897 -0.21026145979 -0.3160223848 2.0044909177 -0.33703072004 0.32154785707 1.8886166261 -0.15660266634 -0.34237206824 
-0.23693407861 -3.2866336055 -2.2269389807 1.9097126347 -0.20401496996 0.75106252989 1.9893931802 -0.078254082287 0.53674457265 
1.8803050028 -0.23632770248 -0.38000678983 1.7766898081 -0.29620936121 -0.72535415684 1.9925689598 -0.2241942041 -0.26326522568 
2.1773391517 -0.23326696531 0.77698264975 1.8492380124 -0.06030782146 0.72229361327 1.7096747093 -0.3377242657 1.2472152106 
1.7771471807 -0.43839249272 -1.1895083168 -0.23751994856 -2.7571085697 -2.0537422379 1.6362496663 -0.40376871309 1.3187871702 
1.409679724 -0.19027817396 1.7499062986 -0.19159917975 -2.7413729162 -2.1239892259 0.89329053062 -0.46851953297 1.8419028874 
0.82320464581 -0.25526493766 2.0173262936 -0.24608876944 -2.1662751625 -2.2375015391 0.90143228531 -0.41620076027 1.9878351647 
-0.32181157016 -1.4909749926 -2.1401808633 -0.27316339348 -1.1665830087 -2.1218966643 0.58643249797 -0.04749760173 2.2394553223 
0.35004707678 -0.22116735624 1.9232978071 -0.20399495297 -0.24754029918 1.9478296016 -0.29298810345 -0.44224001388 -2.2233372142 
-0.25431389943 -0.32362419493 2.204533323 -0.25266536001 -0.38493676396 -2.1232017503 -0.5977130343 -0.028351947326 -2.2190566721 
-0.80825038697 -0.15356665882 1.8990291547 -0.9506022348 -0.22948008823 -2.0295067184 -0.81517640356 -0.47899951645 1.9198658178 
-1.2135858476 -0.30423184697 1.6349421092 -1.4271271626 -0.30014031131 1.6061460586 -0.92139120994 0.020288452318 -1.9397902123 
-1.54918051 -0.50107883426 1.7535111413 -1.4762370091 -0.11673049558 -1.7071811125 -1.7544735161 -0.18793132725 1.3391891913 
-1.7676778537 -0.26546865842 -1.0751992753 -1.6812342735 -0.08325052095 -0.93287054034 -1.7805307926 -0.30654146567 -0.72835266023 
-1.8499638014 -0.41847512095 -0.83387448755 -2.0704771594 -0.44613138941 0.85161310517 -2.0722819055 -0.12194395132 0.8842150982 
-1.6955370179 -0.32204518788 -0.76966534127 -2.0633929273 -0.43168843509 -0.37466326637 -2.0464946109 -0.38064763286 -0.27258201132 
-2.1193263128 -0.51861040684 0.27839405599 -2.0700552662 -0.30286793594 0.29955430854 
radius 1 53 double
0.03 0.03 0.03 0.03 0.03 0.03 0.03 0.03 0.03 
0.03 0.03 0.03 0.03 0.03 0.03 0.03 0.03 0.03 
0.03 0.03 0.03 0.03 0.03 0.03 0.03 0.03 0.03 
0.03 0.03 0.03 0.03 0.03 0.03 0.03 0.03 0.03 
0.03 0.03 0.03 0.03 0.03 0.03 0.03 0.03 0.03 
0.03 0.03 0.03 0.03 0.03 0.03 0.03 0.03 
