# vtk DataFile Version 5.1
Generated by LIGGGHTS
ASCII
DATASET POLYDATA
POINTS 100 float
0.0814883 1.29753 -0.572949 -0.0670795 1.30671 -0.567499 -0.144625 1.33023 -0.563972 
0.0748116 1.26519 -0.521441 0.245834 1.26658 -0.518451 0.308692 1.28303 -0.508366 
-0.285764 1.34196 -0.499804 0.268501 1.75113 -0.489638 0.374126 1.2453 -0.434714 
-0.345822 1.35557 -0.46409 0.19362 1.74272 -0.462705 0.32142 1.74896 -0.461435 
0.323216 1.22297 -0.412141 0.429279 1.26862 -0.42277 0.24682 1.73307 -0.436688 
-0.390272 1.36221 -0.424263 0.300155 1.72661 -0.409974 0.36344 1.72445 -0.394302 
-0.357298 1.3337 -0.383037 -0.436495 1.37316 -0.382299 0.319598 1.72124 -0.353466 
0.41661 1.72308 -0.366533 0.372555 1.70707 -0.329084 0.449941 1.71123 -0.31806 
0.5033 1.2278 -0.296098 -0.470763 1.37105 -0.294826 -0.516877 1.4105 -0.295591 
0.365403 1.71098 -0.269641 0.423092 1.6947 -0.266971 0.482599 1.70237 -0.266704 
-0.520247 1.39275 -0.235061 0.394217 1.70198 -0.214882 0.506125 1.69319 -0.211455 
0.451904 1.71869 -0.216927 0.540992 1.19853 -0.179613 0.457421 1.67678 -0.168509 
0.521511 1.68135 -0.154586 0.569277 1.19936 -0.109355 0.479575 1.715 -0.127907 
0.562112 1.69891 -0.114036 -0.578413 1.42566 -0.119345 0.440939 1.67862 -0.0972651 
0.500008 1.66812 -0.0964561 -0.551626 1.40672 -0.0666684 0.552484 1.67673 -0.0590355 
0.499603 1.65745 -0.0374158 0.48839 1.64684 0.0211297 0.547199 1.66047 -0.000949 
0.548491 1.15136 0.0659142 -0.578116 1.43808 0.0350924 0.474398 1.6362 0.0818594 
0.535344 1.64751 0.062027 0.578583 1.17643 0.135999 -0.569993 1.44771 0.0951385 
0.463168 1.62691 0.141126 0.522954 1.63549 0.130489 -0.531291 1.42745 0.136274 
0.547958 1.1581 0.210273 -0.481767 1.42786 0.173024 0.442696 1.61741 0.197617 
0.501703 1.62788 0.194718 -0.503184 1.44504 0.226374 0.415608 1.60788 0.250299 
0.475097 1.61551 0.248621 0.500268 1.14189 0.306982 0.359161 1.60956 0.270568 
-0.46257 1.45361 0.294128 0.345312 1.5911 0.325954 0.426172 1.60218 0.310336 
0.465585 1.13544 0.355546 0.394167 1.59495 0.360569 -0.409355 1.46889 0.367497 
-0.462389 1.48555 0.344921 0.301999 1.58147 0.366341 -0.350084 1.46491 0.37592 
0.350523 1.58764 0.401088 0.293963 1.6172 0.413867 -0.372817 1.48905 0.425924 
0.221848 1.58198 0.41793 0.279609 1.57125 0.44962 -0.319504 1.49333 0.459948 
-0.217513 1.49051 0.466924 -0.157994 1.49824 0.465278 -0.0552033 1.52243 0.456373 
0.219975 1.56084 0.474217 0.334645 1.59979 0.457696 -0.269971 1.5006 0.494304 
-0.109195 1.50514 0.499524 0.283458 1.59576 0.504237 -0.182078 1.51631 0.532149 
-0.0343623 1.51882 0.512941 0.0251624 1.52693 0.513956 0.107417 1.54468 0.514695 
0.16241 1.56355 0.52961 0.219114 1.58316 0.529903 -0.123813 1.52633 0.553789 
-0.0650812 1.53593 0.56157 0.0790368 1.56159 0.565541 -0.0661624 1.0382 0.566885 
0.00530699 1.05511 0.581467 
VERTICES 101 100
OFFSETS vtktypeint64
0 1 2 3 4 5 6 7 8 
9 10 11 12 13 14 15 16 17 
18 19 20 21 22 23 24 25 26 
27 28 29 30 31 32 33 34 35 
36 37 38 39 40 41 42 43 44 
45 46 47 48 49 50 51 52 53 
54 55 56 57 58 59 60 61 62 
63 64 65 66 67 68 69 70 71 
72 73 74 75 76 77 78 79 80 
81 82 83 84 85 86 87 88 89 
90 91 92 93 94 95 96 97 98 
99 100 
CONNECTIVITY vtktypeint64
0 1 2 3 4 5 6 7 8 
9 10 11 12 13 14 15 16 17 
18 19 20 21 22 23 24 25 26 
27 28 29 30 31 32 33 34 35 
36 37 38 39 40 41 42 43 44 
45 46 47 48 49 50 51 52 53 
54 55 56 57 58 59 60 61 62 
63 64 65 66 67 68 69 70 71 
72 73 74 75 76 77 78 79 80 
81 82 83 84 85 86 87 88 89 
90 91 92 93 94 95 96 97 98 
99 
POINT_DATA 100
FIELD FieldData 4
id 1 100 int
78 64 1 80 38 37 19 47 51 
95 8 63 88 61 34 35 62 79 
30 14 43 50 16 28 49 68 24 
100 29 18 53 69 17 5 90 42 
10 41 96 21 70 84 73 6 39 
83 77 75 98 59 48 81 22 85 
40 44 54 66 4 58 89 60 87 
72 74 25 67 92 2 86 82 46 
45 57 13 56 65 32 15 52 26 
55 99 12 11 3 31 91 9 93 
33 20 36 97 7 23 27 76 94 
71 
type 1 100 int
1 1 1 1 1 1 1 1 1 
1 1 1 1 1 1 1 1 1 
1 1 1 1 1 1 1 1 1 
1 1 1 1 1 1 1 1 1 
1 1 1 1 1 1 1 1 1 
1 1 1 1 1 1 1 1 1 
1 1 1 1 1 1 1 1 1 
1 1 1 1 1 1 1 1 1 
1 1 1 1 1 1 1 1 1 
1 1 1 1 1 1 1 1 1 
1 1 1 1 1 1 1 1 1 
1 
v 3 100 double
1.9754192821 -0.23994536741 0.19855940327 1.7590834419 -0.55402951753 -0.060716240715 1.6174843567 -0.19566793647 -0.2013431347 
1.8925921122 -0.25902258747 0.13658707892 1.7982263543 -0.31653302506 0.74609861586 1.7098979603 -0.08670913973 1.1271344982 
1.7256725308 -0.20745353723 -0.91353895312 0.65664163692 -0.12416921193 0.42981476189 1.5508312196 -0.3421495638 1.216116139 
1.4312060654 -0.32174679393 -1.0749403028 0.55985313853 -0.081844307121 0.37669205377 0.61236633929 -0.16423242061 0.51237208415 
1.4428847996 -0.27119551089 1.042845272 1.3660092554 -0.039860800276 1.4915114967 0.54685464337 -0.11496457917 0.38761033201 
1.3302744231 -0.22105528751 -1.1965361766 0.49870070429 -0.13294025607 0.47871466895 0.52657460718 -0.14095574645 0.50728549574 
1.3123700657 -0.28941233435 -1.2289789758 1.0223907692 -0.21694717367 -1.541660176 0.49956305953 -0.090637717298 0.48215578897 
0.47328005725 -0.12102023789 0.61020523679 0.44698708372 -0.11783496544 0.58041060175 0.42511953611 -0.13703095095 0.64191878541 
0.92071743285 -0.060161428347 1.8295471963 0.83641899177 -0.14618815829 -1.3600391128 0.98523872907 -0.037464629168 -1.2960719453 
0.38671178111 -0.098465230628 0.57171561362 0.37655710186 -0.1325133684 0.61248161207 0.36850853547 -0.069480447935 0.71368497686 
0.67149171115 -0.29821105129 -1.5013214056 0.39590312904 -0.16195424317 0.62844519645 0.42651215364 -0.024601914546 0.70717005069 
0.38090246071 -0.10571228706 0.76383567128 0.85689842769 -0.31505264315 1.9760182577 0.50945109214 -0.20696361405 0.67963781106 
0.17383561732 -0.11301322358 0.74809803616 0.60178963347 -0.15815238476 2.1113810063 0.17026456685 -0.18133014138 0.84087984314 
0.061621355347 -0.1907630969 0.89601996978 0.27723744488 -0.44501043086 -1.443937237 0.32032353648 -0.21768425418 0.77350333049 
0.34065322984 -0.10318810117 0.81592269945 0.24635079113 -0.29095907716 -1.637641965 0.21118361379 -0.09257739542 0.96848498788 
0.11611948543 -0.12958434452 0.81773225401 0.0020850613956 -0.12526566582 0.86112454138 -0.0115048495 -0.077711907633 0.98778589549 
-0.31623827076 -0.36765564004 2.1300389545 -0.23013266271 -0.20532154214 -1.451581788 -0.32002905289 -0.14807449721 0.73482170145 
-0.18467551761 -0.20154814141 0.97495176965 -0.18646595224 -0.14904488807 2.0484702298 -0.31428431038 -0.18081186808 -1.6205203483 
-0.091811436845 -0.11056122407 0.80098595554 -0.095175868606 -0.10657785839 0.765597173 -0.35713878715 -0.068530539618 -1.513507659 
-0.67963001402 -0.031513216411 1.8415260827 -0.6210234709 -0.23807991557 -1.3945076802 -0.32766120261 -0.13151821451 0.73661204064 
-0.32356912491 -0.13272677577 0.81598668473 -0.55807866115 -0.24543855623 -1.3668686945 -0.40361355161 -0.12663598783 0.69840034103 
-0.39381587492 -0.18437340321 0.78878023672 -1.1730512374 -0.096551377555 1.881446098 -0.34904050844 -0.28395509743 0.86266021101 
-0.86567822411 -0.22246672202 -1.1023569206 -0.67057205793 -0.1716009339 0.81895067417 -0.67948916763 -0.17169727294 0.81116046215 
-1.3020988062 -0.28679239794 1.7747130326 -0.6673984071 -0.1906095648 0.8162047143 -0.75468766026 -0.26591206306 -1.2105748449 
-0.7995291511 -0.24621514254 -1.0876538616 -0.74042425351 -0.17075011186 0.74146662997 -0.79494580348 -0.2443487867 -0.95913267454 
-0.7503703094 -0.094085050712 0.74446770214 -0.89402346525 -0.12609205948 0.67790613741 -1.0125907728 -0.40938025637 -0.98873584801 
-0.9978772988 -0.82205239848 0.17927343891 -1.0343107642 -0.11484469046 0.56593628897 -0.99628668024 -0.23641585962 -0.79938611533 
-1.0352084675 -0.33272963214 -0.81817703741 -1.0514720535 -0.19111489712 -0.37330365871 -0.85626937133 -0.1621264986 -0.28001110672 
-1.1731477225 -0.23428614822 0.41370712541 -0.99516759807 -0.22215558881 0.70798961554 -0.97651735151 -0.17885443299 -0.77010973537 
-1.2046736546 -0.19332001007 -0.15106118956 -1.2343898577 -0.13780499272 0.58211797732 -1.3204311869 -0.17198732098 -0.39455055959 
-1.2873996407 -0.17557272751 -0.088598042238 -1.2756427506 -0.20914861735 0.18369904874 -1.1696614878 -0.10187119326 0.36075902629 
-1.170144554 -0.20006473284 0.49650759612 -1.1469293861 -0.26613881752 0.42687216251 -1.351942243 -0.2187529875 -0.17381856912 
-1.3598882372 -0.19888391107 -0.12441162625 -1.4166123991 -0.18154686154 0.22254612496 -2.2051940878 -0.42164777314 -0.25843082565 
-2.3629922751 -0.068336528856 -0.25985571405 
radius 1 100 double
0.03 0.03 0.03 0.03 0.03 0.03 0.03 0.03 0.03 
0.03 0.03 0.03 0.03 0.03 0.03 0.03 0.03 0.03 
0.03 0.03 0.03 0.03 0.03 0.03 0.03 0.03 0.03 
0.03 0.03 0.03 0.03 0.03 0.03 0.03 0.03 0.03 
0.03 0.03 0.03 0.03 0.03 0.03 0.03 0.03 0.03 
0.03 0.03 0.03 0.03 0.03 0.03 0.03 0.03 0.03 
0.03 0.03 0.03 0.03 0.03 0.03 0.03 0.03 0.03 
0.03 0.03 0.03 0.03 0.03 0.03 0.03 0.03 0.03 
0.03 0.03 0.03 0.03 0.03 0.03 0.03 0.03 0.03 
0.03 0.03 0.03 0.03 0.03 0.03 0.03 0.03 0.03 
0.03 0.03 0.03 0.03 0.03 0.03 0.03 0.03 0.03 
0.03 
