# vtk DataFile Version 5.1
Generated by LIGGGHTS
ASCII
DATASET POLYDATA
POINTS 100 float
0.103344 0.789785 -0.570794 -0.052966 0.812233 -0.578291 0.230074 0.790092 -0.544609 
-0.192002 0.835 -0.552699 0.0870671 1.28586 -0.564164 -0.103944 1.30838 -0.553702 
-0.0451882 1.30211 -0.568853 -0.261275 0.856049 -0.527969 -0.201162 1.33237 -0.541565 
-0.311507 0.845809 -0.493802 0.279622 1.24521 -0.48307 -0.0814449 1.28426 -0.503581 
-0.148981 1.2986 -0.509342 -0.253679 1.32507 -0.48729 0.367943 0.756809 -0.454151 
-0.363958 0.876264 -0.464046 0.334541 1.24589 -0.457503 -0.312628 1.34609 -0.483067 
0.375733 1.22733 -0.414274 -0.292353 1.32049 -0.432733 0.453287 0.763228 -0.395463 
0.449623 1.26727 -0.397974 -0.38769 1.36048 -0.422952 -0.44731 0.87352 -0.372326 
0.419305 1.22247 -0.371977 -0.381777 1.33835 -0.367498 0.493312 0.720734 -0.306274 
0.46591 1.21215 -0.313964 0.515961 1.23425 -0.287634 -0.425824 1.35273 -0.328978 
0.521329 0.712623 -0.245476 -0.514515 0.897198 -0.293322 -0.471819 1.36747 -0.278687 
0.504128 1.19238 -0.226045 -0.413537 1.35275 -0.269144 -0.530578 0.895938 -0.235363 
-0.495831 1.37406 -0.223945 0.521255 1.17908 -0.164701 -0.439739 1.3631 -0.205677 
-0.513069 1.37941 -0.166265 -0.582085 0.940023 -0.139057 0.541949 1.17543 -0.10834 
-0.557993 1.40805 -0.138219 0.549894 0.666501 -0.0739646 0.593407 0.70573 -0.0610199 
0.508298 1.15759 -0.0616489 -0.499508 1.38312 -0.106964 0.559682 1.16973 -0.0331472 
-0.551948 1.40717 -0.0634966 -0.496122 1.39118 -0.0475297 0.549029 1.1537 0.0323174 
0.593184 1.1913 0.0117253 -0.5464 1.40673 0.00117809 0.588643 0.687233 0.0519093 
-0.487511 1.39841 0.0115539 -0.551822 0.911822 0.0397871 -0.591624 0.956413 0.0524883 
0.564111 1.16254 0.0915758 -0.54672 1.4207 0.0649171 -0.49523 1.41445 0.095078 
-0.543233 1.43424 0.125601 0.562928 0.667889 0.183096 -0.58298 0.96245 0.121147 
0.524932 1.13435 0.158963 -0.542128 0.943068 0.172665 0.498149 1.12134 0.21339 
-0.521577 1.43709 0.181607 -0.464676 1.42429 0.167525 0.472314 1.11231 0.268158 
0.524796 1.14709 0.261337 -0.441222 1.43417 0.224137 -0.49862 1.44652 0.236496 
0.495318 1.1416 0.315225 -0.472878 1.45377 0.290444 0.470618 0.636354 0.348341 
-0.501593 0.980875 0.308007 0.428289 1.10418 0.339763 -0.434221 1.46242 0.335559 
-0.44839 0.964839 0.338298 0.433556 1.12519 0.395723 -0.343257 1.46152 0.357321 
-0.448428 1.00558 0.388723 -0.396317 1.47216 0.383847 -0.306164 1.47173 0.403383 
0.386299 1.11406 0.435702 -0.359046 1.48521 0.429536 -0.309402 1.49265 0.463322 
-0.236835 1.49059 0.46787 -0.178554 1.49495 0.454279 -0.127125 1.50287 0.495545 
-0.319739 1.03494 0.50584 -0.260977 1.01897 0.51795 -0.0119536 1.02646 0.538242 
0.25278 1.09246 0.520947 -0.196646 1.50754 0.510083 0.0848276 0.564465 0.572545 
0.151684 1.06882 0.557506 -0.131747 0.537043 0.56807 -0.0977945 1.05662 0.581453 
-0.0141692 1.06321 0.586347 
VERTICES 101 100
OFFSETS vtktypeint64
0 1 2 3 4 5 6 7 8 
9 10 11 12 13 14 15 16 17 
18 19 20 21 22 23 24 25 26 
27 28 29 30 31 32 33 34 35 
36 37 38 39 40 41 42 43 44 
45 46 47 48 49 50 51 52 53 
54 55 56 57 58 59 60 61 62 
63 64 65 66 67 68 69 70 71 
72 73 74 75 76 77 78 79 80 
81 82 83 84 85 86 87 88 89 
90 91 92 93 94 95 96 97 98 
99 100 
CONNECTIVITY vtktypeint64
0 1 2 3 4 5 6 7 8 
9 10 11 12 13 14 15 16 17 
18 19 20 21 22 23 24 25 26 
27 28 29 30 31 32 33 34 35 
36 37 38 39 40 41 42 43 44 
45 46 47 48 49 50 51 52 53 
54 55 56 57 58 59 60 61 62 
63 64 65 66 67 68 69 70 71 
72 73 74 75 76 77 78 79 80 
81 82 83 84 85 86 87 88 89 
90 91 92 93 94 95 96 97 98 
99 
POINT_DATA 100
FIELD FieldData 4
id 1 100 int
37 88 51 38 65 56 15 78 25 
80 57 92 82 58 61 64 3 2 
9 87 49 7 72 1 52 40 90 
11 12 89 41 19 44 97 48 95 
75 36 81 39 30 20 73 22 98 
76 77 27 83 84 33 91 21 66 
96 35 14 99 42 17 10 74 68 
23 24 31 18 5 93 55 69 29 
26 100 86 70 13 16 53 32 43 
6 28 62 45 50 79 34 8 47 
59 54 4 46 63 71 67 94 85 
60 
type 1 100 int
1 1 1 1 1 1 1 1 1 
1 1 1 1 1 1 1 1 1 
1 1 1 1 1 1 1 1 1 
1 1 1 1 1 1 1 1 1 
1 1 1 1 1 1 1 1 1 
1 1 1 1 1 1 1 1 1 
1 1 1 1 1 1 1 1 1 
1 1 1 1 1 1 1 1 1 
1 1 1 1 1 1 1 1 1 
1 1 1 1 1 1 1 1 1 
1 1 1 1 1 1 1 1 1 
1 
v 3 100 double
2.2972215243 -0.48069715312 0.21884751583 2.261833496 -0.51693759854 -0.33348636535 2.1637582105 -0.34358642943 0.76225789173 
1.8767131469 -0.45314353307 -0.69560640826 1.7217544503 -0.36681526849 0.29089498192 1.4960623437 -0.09076505309 -0.53942915008 
1.7046651485 -0.33295824963 -0.10027328139 1.6505482242 -0.12546847491 -0.79411245456 1.4644834142 -0.27460835643 -0.59366481319 
1.7470624122 -0.47056199725 -1.2590855215 1.5186847204 -0.27911156671 0.99346753122 1.4274205853 -0.27847230714 -0.59892044774 
1.4770914993 -0.089485242232 -0.46042203424 1.4075610082 -0.15424191702 -0.79919724537 1.8921087991 -0.4451870167 1.3212133707 
1.6998711373 -0.29904412597 -1.3647110887 1.3344004888 -0.29686230786 1.0490568942 1.3146427863 -0.29802589607 -0.92634605633 
1.1004910953 -0.30224448328 1.0718286469 1.2725265295 -0.24963723267 -0.88433369634 1.3585916399 0.036403514093 1.7445284832 
1.1621543768 -0.096376553257 1.4027185843 1.3153727513 -0.20797024504 -1.1742345055 1.3129286523 -0.64566716081 -1.6013897891 
1.0427883722 -0.14111510276 1.1787044682 0.96993584384 -0.23896870331 -1.1487522396 1.5084889505 -0.31131782602 1.8520255763 
0.99758824882 -0.46925147346 1.5708205516 0.80781500803 -0.16226320127 1.6850093766 0.94815021806 -0.27460698814 -1.1469760239 
0.95223884519 -0.37702419607 2.1420235391 1.3501017075 -0.11138321283 -1.7368586072 0.73956073707 -0.1314651982 -1.2252096794 
0.62521813045 -0.31012394721 1.5996318881 0.69851979389 -0.19025292556 -1.0970416803 0.83112030247 -0.34922291101 -1.7971234347 
0.5021180726 -0.19871283828 -1.3226110456 0.53060896732 -0.30844089748 1.636051293 0.49343613028 -0.22232481336 -1.3100094543 
0.58135027882 -0.25703969521 -1.3064307854 0.27191347091 -0.54135307029 -2.0563558471 0.37085561972 -0.15561311233 1.706614197 
0.50973347505 -0.095401332223 -1.5325668561 0.34324758073 -0.29580640055 2.1476808256 0.31684188516 -0.29698989426 2.2399643883 
0.2764668548 -0.25088495 1.6018632766 0.16848276636 -0.19227170831 -1.1666671191 0.18730452884 -0.33357514135 1.8016770095 
0.15073255493 -0.20248420755 -1.4107994275 0.041105759503 -0.17220648287 -1.1587060183 -0.12176545295 -0.22073058016 1.860461901 
-0.076463216293 -0.16375304059 1.9274397271 0.12753334466 -0.22687465203 -1.3706452479 -0.32347946238 -0.3221045142 2.0125854628 
0.13075512564 -0.18039234358 -1.1559984728 -0.25279207353 -0.38751743618 -2.1882436158 -0.27025782575 -0.49712404094 -2.1301019519 
-0.24140251857 -0.30113417039 1.8662470252 -0.13732860206 -0.251771389 -1.3462865264 -0.2001282925 -0.19387127453 -1.2270759338 
-0.20484818634 -0.17622215117 -1.2652500894 -1.0043745808 -0.3157402857 2.0606788793 -0.61501322064 -0.081905238651 -2.0709964608 
-0.45888799551 -0.1613944133 1.8327685224 -0.83370480105 -0.33706263996 -1.9830025248 -0.70837252176 -0.29339628232 1.7537850215 
-0.46421086744 -0.22891855239 -1.1866033306 -0.4644462578 -0.21371176239 -1.2015684013 -1.0074849415 -0.16231800445 1.5562843515 
-0.78863133461 -0.34170793886 1.839827398 -0.58394997193 -0.18779167917 -1.1570814676 -0.56732551847 -0.12559525962 -1.1415890852 
-1.086280302 -0.124047596 1.5661853067 -0.72207328425 -0.12074331034 -1.0564717428 -1.4128429332 -0.34737024083 1.8044839789 
-1.2728678705 -0.41242039055 -1.7543843487 -0.95547071314 -0.19994298132 1.4400867805 -0.66025141631 -0.24029199338 -1.0879241487 
-1.274621963 -0.34192814177 -1.6227674998 -1.2417221411 -0.4082462101 1.5469367168 -0.91190692689 -0.25631946336 -0.79276085441 
-1.6264451825 -0.082678115888 -1.6337258466 -0.97208740417 -0.150899821 -0.89186119767 -0.93877278375 -0.21074215485 -0.77863938367 
-1.5290447568 -0.19817117301 1.2577199619 -0.99358999934 -0.23599834021 -0.79489978575 -1.0692636259 -0.15199831525 -0.59715726002 
-1.0953806994 -0.1475225154 -0.33980624334 -1.0737952856 -0.20955559118 -0.26161985541 -1.009829515 -0.14163790756 -0.32821769804 
-1.6589960659 -0.069874129232 -1.0342840624 -1.8141091795 -0.55009402534 -0.74118432307 -2.0866013249 -0.25965967492 0.024274777717 
-1.8570222819 -0.4734885329 0.66723830185 -1.1402536641 -0.13292502684 -0.30047998746 -2.2817442856 -0.32534104426 0.35426124209 
-2.0783629125 -0.2321036657 0.43131340877 -2.3361887688 -0.59836033607 -0.32060661673 -1.844749081 -0.33404715602 -0.26317095532 
-2.2832952639 0.0029385461273 -0.097075385007 
radius 1 100 double
0.03 0.03 0.03 0.03 0.03 0.03 0.03 0.03 0.03 
0.03 0.03 0.03 0.03 0.03 0.03 0.03 0.03 0.03 
0.03 0.03 0.03 0.03 0.03 0.03 0.03 0.03 0.03 
0.03 0.03 0.03 0.03 0.03 0.03 0.03 0.03 0.03 
0.03 0.03 0.03 0.03 0.03 0.03 0.03 0.03 0.03 
0.03 0.03 0.03 0.03 0.03 0.03 0.03 0.03 0.03 
0.03 0.03 0.03 0.03 0.03 0.03 0.03 0.03 0.03 
0.03 0.03 0.03 0.03 0.03 0.03 0.03 0.03 0.03 
0.03 0.03 0.03 0.03 0.03 0.03 0.03 0.03 0.03 
0.03 0.03 0.03 0.03 0.03 0.03 0.03 0.03 0.03 
0.03 0.03 0.03 0.03 0.03 0.03 0.03 0.03 0.03 
0.03 
