# vtk DataFile Version 5.1
Generated by LIGGGHTS
ASCII
DATASET POLYDATA
POINTS 100 float
0.0384981 0.800215 -0.577474 0.0245953 1.29216 -0.569381 0.192459 0.781053 -0.547139 
-0.113382 0.821538 -0.568882 -0.189681 0.846089 -0.561346 0.155045 1.27199 -0.546101 
-0.0428439 1.30592 -0.572915 -0.141189 1.32218 -0.55905 0.313436 0.779916 -0.506576 
-0.239695 0.837416 -0.525913 -0.0241959 1.27715 -0.523479 -0.195869 1.31759 -0.517434 
-0.0891647 1.29282 -0.526281 -0.256496 1.33897 -0.51645 -0.293888 0.861059 -0.51515 
0.334271 1.23503 -0.443982 -0.239298 1.31111 -0.46611 -0.3331 1.35068 -0.468486 
-0.385957 0.860367 -0.434457 0.386626 1.23256 -0.414779 0.436635 0.74742 -0.392307 
-0.339926 1.33273 -0.410048 0.419184 1.21811 -0.366308 0.494693 1.25784 -0.340291 
-0.38611 1.34158 -0.372765 0.507936 0.7568 -0.326102 -0.460511 0.884894 -0.362796 
0.459181 1.21318 -0.321731 -0.384515 1.34443 -0.312742 -0.440495 1.36108 -0.326861 
-0.492498 0.883352 -0.305871 0.49838 1.19796 -0.245591 -0.473381 1.36794 -0.276882 
0.541442 0.717352 -0.223992 0.547002 1.22373 -0.219428 -0.417919 1.35446 -0.258027 
-0.487256 1.36813 -0.217932 0.556754 0.696435 -0.158292 -0.55306 0.928662 -0.215761 
0.5267 1.17887 -0.160378 -0.536364 1.39994 -0.199314 -0.491975 1.37629 -0.154465 
0.539732 1.17074 -0.0980219 -0.543796 1.39735 -0.120574 -0.491711 1.38385 -0.0940253 
0.554148 1.16675 -0.0391683 -0.550574 0.900979 -0.0491704 -0.538089 1.39689 -0.0538253 
-0.481339 1.39079 -0.0352768 0.554003 0.65352 0.0117774 0.595033 0.694847 0.0291617 
-0.590806 0.941998 -0.0316532 0.513658 1.14774 0.00102293 0.558304 1.16082 0.0390022 
-0.549196 1.40952 0.00967026 -0.596002 0.957767 0.0412235 0.584657 1.18224 0.0884754 
-0.500851 1.40622 0.0452671 0.541567 1.14344 0.106878 -0.549879 1.42574 0.0741248 
0.575704 0.666501 0.132413 -0.564485 0.936525 0.0892035 -0.479211 1.41625 0.117876 
0.548817 1.15292 0.166 -0.536127 1.43031 0.132378 -0.462333 1.426 0.176333 
0.503716 1.1278 0.231774 -0.519399 1.43923 0.18931 0.522753 0.647411 0.265523 
-0.541557 0.972777 0.230332 -0.496693 1.44968 0.245852 -0.493677 0.953905 0.268836 
0.464866 1.11145 0.280618 0.429749 1.10205 0.328762 0.485593 1.14023 0.329014 
-0.458453 1.45267 0.292401 -0.508841 0.99979 0.321127 -0.379228 1.45332 0.324345 
0.385958 1.09488 0.389405 0.448894 1.13126 0.377553 -0.433103 1.46687 0.347019 
-0.341968 1.46271 0.370834 0.412341 0.617033 0.418662 -0.395338 1.47615 0.395215 
0.372253 1.11434 0.448933 -0.350371 1.48681 0.436022 -0.221516 1.48668 0.442931 
-0.384418 1.02759 0.462662 0.323437 1.10115 0.484122 -0.280852 1.4868 0.45194 
-0.328559 1.00864 0.47558 -0.24288 1.50178 0.496928 -0.167585 1.49648 0.480522 
-0.0959274 1.0176 0.537743 -0.220125 0.526582 0.53647 0.0695908 1.05655 0.56919 
0.175877 1.07137 0.546949 -0.00686618 0.549889 0.581296 -0.170363 1.04514 0.563376 
-0.105593 1.0572 0.581768 
VERTICES 101 100
OFFSETS vtktypeint64
0 1 2 3 4 5 6 7 8 
9 10 11 12 13 14 15 16 17 
18 19 20 21 22 23 24 25 26 
27 28 29 30 31 32 33 34 35 
36 37 38 39 40 41 42 43 44 
45 46 47 48 49 50 51 52 53 
54 55 56 57 58 59 60 61 62 
63 64 65 66 67 68 69 70 71 
72 73 74 75 76 77 78 79 80 
81 82 83 84 85 86 87 88 89 
90 91 92 93 94 95 96 97 98 
99 100 
CONNECTIVITY vtktypeint64
0 1 2 3 4 5 6 7 8 
9 10 11 12 13 14 15 16 17 
18 19 20 21 22 23 24 25 26 
27 28 29 30 31 32 33 34 35 
36 37 38 39 40 41 42 43 44 
45 46 47 48 49 50 51 52 53 
54 55 56 57 58 59 60 61 62 
63 64 65 66 67 68 69 70 71 
72 73 74 75 76 77 78 79 80 
81 82 83 84 85 86 87 88 89 
90 91 92 93 94 95 96 97 98 
99 
POINT_DATA 100
FIELD FieldData 4
id 1 100 int
88 15 37 38 78 65 56 25 51 
80 92 58 82 2 64 57 87 72 
1 3 61 40 9 7 89 49 19 
52 48 44 95 11 75 90 12 81 
39 41 30 97 73 77 36 83 84 
20 35 21 96 22 98 14 76 27 
42 68 91 17 33 10 66 24 5 
99 18 69 23 29 74 70 100 53 
31 93 55 16 6 43 13 26 28 
62 86 50 32 79 8 59 45 34 
54 63 47 4 94 67 46 71 85 
60 
type 1 100 int
1 1 1 1 1 1 1 1 1 
1 1 1 1 1 1 1 1 1 
1 1 1 1 1 1 1 1 1 
1 1 1 1 1 1 1 1 1 
1 1 1 1 1 1 1 1 1 
1 1 1 1 1 1 1 1 1 
1 1 1 1 1 1 1 1 1 
1 1 1 1 1 1 1 1 1 
1 1 1 1 1 1 1 1 1 
1 1 1 1 1 1 1 1 1 
1 1 1 1 1 1 1 1 1 
1 
v 3 100 double
2.2928512156 -0.24901463089 0.25518105976 1.7116909182 -0.15562162936 0.13897038196 2.1831681281 -0.20773373277 0.77952591914 
2.0140535561 -0.35834238908 -0.23606745656 1.8224078957 -0.33079329115 -0.74709562218 1.6534698692 -0.23486416708 0.68442996225 
1.5723375366 -0.015697779771 -0.36679735066 1.5365023378 -0.15161701301 -0.2351122254 1.9344944237 -0.051907815425 1.2548728858 
1.8541460274 -0.39688319634 -0.76406197271 1.4408579147 -0.14434108089 -0.3922762087 1.4829485791 -0.21984337705 -0.70804359937 
1.5199468947 -0.16958667264 -0.37390239101 1.4611424672 -0.10667982152 -0.71865961613 1.9514250034 -0.026138651143 -0.83284031742 
1.2834978481 -0.26207115602 0.98631955694 1.4093207277 -0.20207768176 -0.72858954282 1.4142840664 -0.28258371123 -1.1011549919 
1.6343665195 -0.3077087191 -1.4836799419 1.228123318 -0.38172053473 1.075506429 1.5570720251 -0.1449057119 1.7290179256 
1.11171666 -0.16295587861 -1.0266024399 1.0175077149 -0.23345544598 1.2772922896 1.1005687074 -0.38820514382 1.4729068166 
1.1050604001 -0.14420294693 -1.037923992 1.3662497365 -0.35689271155 1.7339981591 1.3501017075 -0.50378321283 -1.7368586072 
0.95026365237 -0.32569105249 1.3357376545 0.76829197572 -0.19796816469 -0.99403529883 0.81364384828 -0.18287460443 -1.1861412784 
1.1076335278 -0.24937980289 -1.7050153955 0.73304931748 -0.42636295166 1.7656239504 0.63161617807 -0.097966288779 -1.3170081946 
1.181096684 -0.25091768545 2.0717087711 0.71933177086 -0.30646123622 1.7410209181 0.59578529485 -0.21282446077 -1.303559839 
0.69413815594 -0.24552359879 -1.2745226798 0.49301723818 -0.046024281087 2.3324390459 0.85952864343 -0.34829419425 -1.8765756517 
0.51835797769 -0.32151604173 1.6833171266 0.60086819233 -0.24608022083 -1.5173124661 0.20710835814 -0.17011440886 -1.2043334857 
0.35066580448 -0.14437873699 1.670555046 0.26387525577 -0.29303240919 -1.4385241675 0.15641790006 -0.19191104161 -1.1761794721 
0.23942647705 -0.27883736206 1.7527800879 0.19678784055 -0.28314280525 -2.2420011117 0.26740091673 -0.29167855245 -1.379666848 
0.21374200929 -0.19862284463 -1.1721277769 -0.23297157803 -0.29119036486 2.1325514393 -0.3023182945 -0.21350303788 2.2619091129 
0.35277058841 -0.200899005 -2.0736630648 0.077607659873 -0.21038092939 1.5782316129 -0.14929286238 -0.22324131651 1.796965131 
0.09807455625 -0.14158730978 -1.4486736883 -0.31846010062 -0.30927992705 -1.9962385834 -0.27096253645 -0.36060988326 1.9255968868 
-0.025860221693 -0.23516045164 -1.2190248994 -0.25180395033 -0.30967732906 1.8685086875 -0.12157959116 -0.25272338454 -1.3024628876 
-0.32347946238 -0.7145045142 2.0125854628 -0.46680799624 -0.16219865817 -2.1185820249 -0.28870716078 -0.18974728657 -1.2757929201 
-0.52560608073 -0.19040652055 1.8483170464 -0.2639915492 -0.13205037143 -1.283167068 -0.47149876163 -0.22048086075 -1.2331634311 
-0.59725550255 -0.20525617062 1.8085567995 -0.46727355985 -0.23469132736 -1.2024952423 -1.0043745808 -0.7081402857 2.0606788793 
-0.93256591508 -0.22165435609 -1.98439175 -0.53172637421 -0.15831613645 -1.1509406972 -0.93222058268 -0.16567503652 -1.8789956312 
-0.99132629649 -0.19410945658 1.5618678046 -1.1386350855 -0.30793850343 1.4628703966 -1.1008766421 -0.1405964408 1.57671427 
-0.58825129848 -0.25456331061 -1.1109762003 -1.3672083298 -0.22300248647 -1.7473269074 -0.83293115657 -0.16344038471 -0.88513011038 
-1.1682253231 -0.16969648335 1.1393728053 -1.2245390311 -0.38407151929 1.5421923384 -0.86424947736 -0.12409625924 -0.98278963848 
-0.81537055747 -0.2496459809 -0.87064584263 -1.8670466982 -0.13823925936 1.3247200536 -0.82019466812 -0.11674403763 -0.92838863274 
-1.5970338702 -0.39395633001 1.283403035 -0.98506826368 -0.19783974874 -0.75285623145 -1.0803809668 -0.20529951149 -0.30577504381 
-1.5132594091 -0.26385568554 -1.1641006897 -1.6196030926 -0.44438199238 1.1576974272 -1.0960941444 -0.08799661742 -0.4452598118 
-1.6466465238 -0.32394628563 -1.1510116362 -1.1724818923 -0.15501535964 -0.35627127644 -1.0132018136 -0.17817957321 -0.42284406695 
-2.1014947471 -0.25326744515 -0.080414003772 -2.1836730762 -0.35189163497 -0.885431996 -2.0526573223 -0.41908301187 0.21287791283 
-2.027634675 -0.49426961298 0.62060637088 -2.3123294517 -0.080083428497 -0.23000456483 -1.7664994303 -0.19782022601 -0.67730892706 
-2.2936224271 -0.19960172188 -0.17160839856 
radius 1 100 double
0.03 0.03 0.03 0.03 0.03 0.03 0.03 0.03 0.03 
0.03 0.03 0.03 0.03 0.03 0.03 0.03 0.03 0.03 
0.03 0.03 0.03 0.03 0.03 0.03 0.03 0.03 0.03 
0.03 0.03 0.03 0.03 0.03 0.03 0.03 0.03 0.03 
0.03 0.03 0.03 0.03 0.03 0.03 0.03 0.03 0.03 
0.03 0.03 0.03 0.03 0.03 0.03 0.03 0.03 0.03 
0.03 0.03 0.03 0.03 0.03 0.03 0.03 0.03 0.03 
0.03 0.03 0.03 0.03 0.03 0.03 0.03 0.03 0.03 
0.03 0.03 0.03 0.03 0.03 0.03 0.03 0.03 0.03 
0.03 0.03 0.03 0.03 0.03 0.03 0.03 0.03 0.03 
0.03 0.03 0.03 0.03 0.03 0.03 0.03 0.03 0.03 
0.03 
