# vtk DataFile Version 5.1
Generated by LIGGGHTS
ASCII
DATASET POLYDATA
POINTS 100 float
0.0523085 0.811749 -0.584086 0.121753 0.828796 -0.594567 -0.0686081 0.834647 -0.590161 
-0.0198951 1.30784 -0.579941 -0.128076 0.827403 -0.569422 0.0530504 1.28726 -0.565544 
0.113207 1.2778 -0.557889 -0.0793539 1.31141 -0.567779 0.170209 1.29652 -0.563162 
0.296044 0.770534 -0.508284 -0.284033 0.862471 -0.520561 0.146157 1.25596 -0.511203 
0.0221727 1.2685 -0.516396 0.219222 1.27238 -0.530434 0.281729 1.26804 -0.509615 
-0.192841 1.31735 -0.519366 -0.135 1.30105 -0.52199 -0.249632 1.33171 -0.506271 
0.317095 1.24473 -0.466104 0.372863 1.26265 -0.453033 -0.319289 1.34974 -0.484127 
-0.391865 0.876318 -0.439055 0.35599 1.22439 -0.409818 -0.238462 1.31166 -0.450835 
-0.318092 1.3287 -0.42795 0.413385 1.24119 -0.401634 -0.449223 0.887907 -0.380403 
0.441019 1.21986 -0.347867 0.471706 1.26627 -0.370575 -0.407248 1.35705 -0.387728 
-0.496774 0.891769 -0.312646 0.495977 1.21877 -0.289704 -0.525813 1.39942 -0.257813 
0.530329 1.20008 -0.199552 0.579992 0.717771 -0.149664 -0.538407 1.40137 -0.199143 
-0.571699 0.91799 -0.156409 0.551161 1.18098 -0.100268 -0.547144 1.40066 -0.139781 
-0.504074 1.38462 -0.101085 0.551934 1.16173 -0.0276271 -0.555363 1.4088 -0.0809139 
-0.588421 0.937611 -0.0418901 0.593755 0.687325 0.0241708 0.593069 1.19143 0.0065267 
-0.559787 1.41673 -0.00638128 -0.517649 1.40823 0.0428876 -0.570468 1.43585 0.0497592 
-0.58656 0.967463 0.110383 -0.534339 1.42104 0.099878 0.531491 1.13909 0.158558 
-0.493626 1.42319 0.144077 -0.552534 0.945146 0.157175 -0.540607 1.44747 0.172599 
-0.51638 0.938526 0.205309 0.534786 1.15174 0.240578 -0.492949 1.43736 0.207666 
-0.498364 1.45959 0.263079 -0.439901 1.44363 0.265811 0.423612 1.0992 0.332334 
-0.399995 1.45177 0.311106 -0.49284 0.974102 0.307661 -0.459011 1.4644 0.319267 
0.436436 1.12323 0.389482 -0.41964 1.47048 0.364622 -0.360696 1.46103 0.358274 
-0.302011 1.47265 0.363185 0.287939 1.57878 0.375706 0.209366 1.56406 0.42066 
-0.445089 1.01607 0.404307 -0.336079 1.47653 0.412421 -0.272646 1.47827 0.428305 
0.303746 1.57693 0.433556 -0.381264 1.00113 0.439212 0.325937 1.10199 0.482362 
-0.36727 1.51018 0.451082 0.166396 1.55142 0.480559 0.25216 1.56716 0.4626 
-0.304774 1.01257 0.492314 0.274492 1.0995 0.515362 -0.292324 1.49919 0.48116 
-0.226677 1.49402 0.476316 -0.164351 1.49965 0.488568 0.112023 1.54173 0.505384 
0.214564 1.57309 0.509022 0.207576 1.08283 0.540836 -0.2072 1.51841 0.52756 
-0.0863607 1.51472 0.516504 -0.0266238 1.52052 0.515003 0.0477916 1.53966 0.533532 
0.158832 1.56603 0.538253 -0.243113 1.03571 0.537227 -0.074093 1.03592 0.565776 
0.076445 1.05513 0.564784 0.135595 1.07267 0.562654 -0.150518 1.52544 0.547224 
0.0989543 1.56235 0.560323 0.016009 1.07883 0.597383 -0.0795154 1.54434 0.568235 
-0.00667486 1.54727 0.570662 
VERTICES 101 100
OFFSETS vtktypeint64
0 1 2 3 4 5 6 7 8 
9 10 11 12 13 14 15 16 17 
18 19 20 21 22 23 24 25 26 
27 28 29 30 31 32 33 34 35 
36 37 38 39 40 41 42 43 44 
45 46 47 48 49 50 51 52 53 
54 55 56 57 58 59 60 61 62 
63 64 65 66 67 68 69 70 71 
72 73 74 75 76 77 78 79 80 
81 82 83 84 85 86 87 88 89 
90 91 92 93 94 95 96 97 98 
99 100 
CONNECTIVITY vtktypeint64
0 1 2 3 4 5 6 7 8 
9 10 11 12 13 14 15 16 17 
18 19 20 21 22 23 24 25 26 
27 28 29 30 31 32 33 34 35 
36 37 38 39 40 41 42 43 44 
45 46 47 48 49 50 51 52 53 
54 55 56 57 58 59 60 61 62 
63 64 65 66 67 68 69 70 71 
72 73 74 75 76 77 78 79 80 
81 82 83 84 85 86 87 88 89 
90 91 92 93 94 95 96 97 98 
99 
POINT_DATA 100
FIELD FieldData 4
id 1 100 int
66 74 98 36 22 20 27 97 91 
86 41 33 76 99 23 11 12 7 
31 55 9 90 93 52 3 26 49 
13 32 57 61 45 65 46 71 15 
51 67 56 92 4 82 37 94 60 
25 58 2 88 87 85 40 38 72 
78 54 89 44 48 59 81 80 75 
6 39 77 84 8 34 64 83 96 
47 1 53 73 62 63 19 70 21 
42 17 43 79 24 10 5 69 16 
50 95 30 35 68 18 28 14 29 
100 
type 1 100 int
1 1 1 1 1 1 1 1 1 
1 1 1 1 1 1 1 1 1 
1 1 1 1 1 1 1 1 1 
1 1 1 1 1 1 1 1 1 
1 1 1 1 1 1 1 1 1 
1 1 1 1 1 1 1 1 1 
1 1 1 1 1 1 1 1 1 
1 1 1 1 1 1 1 1 1 
1 1 1 1 1 1 1 1 1 
1 1 1 1 1 1 1 1 1 
1 1 1 1 1 1 1 1 1 
1 
v 3 100 double
2.3645901493 -0.12342537285 0.21576643764 2.0437993308 -0.35671799242 0.29989420515 2.1227049308 -0.14620951221 -0.38593587562 
1.7371143726 -0.36525125227 -0.17110811144 2.0686463321 -0.16347247569 -0.32260094586 1.8558915577 -0.26026975985 0.21060301684 
1.5101081915 -0.29953878131 0.2385977804 1.7152509401 -0.21224111694 -0.27343550372 1.4914519676 -0.11619150544 0.45862329119 
1.9879689746 0.058734532791 1.2639669804 2.0271464249 0.077998443771 -0.98820436361 1.8781317092 -0.055133876754 0.10410040702 
1.6267716967 -0.18187849852 0.023986268614 1.4873172141 -0.16558727261 0.5362719292 1.3652382874 0.0072297824255 0.94966824648 
1.5433594384 -0.22406978285 -0.74803427586 1.5998762526 -0.076448528913 -0.6138268242 1.5373844036 -0.20979475189 -0.77688532961 
1.4108073089 -0.096197967628 0.90959765104 1.4274688998 -0.20196114331 1.002719492 1.4265985042 -0.3693904636 -1.0339487842 
1.7468141954 -0.18457314182 -1.3599422734 1.2794217251 -0.23176184658 0.90016156345 1.4831975523 -0.27799537948 -0.79070515729 
1.1773957996 -0.21496010993 -0.97107428387 1.2271015284 -0.10941499855 1.3184482651 1.3809284308 -0.50739501997 -1.7817839916 
0.9943750968 -0.11916695167 1.1036482839 1.1237915125 -0.10317804322 1.3552978914 1.2155797734 0.029757441102 -1.4164556237 
1.3549158932 -0.18522107424 -1.7231267282 0.87763128531 0.036922936013 1.4617349955 0.46718991642 -0.17225693178 -1.3379814022 
0.77391743325 -0.30644306773 1.8275521474 0.17256558098 -0.17739005221 2.0812246816 0.39845503263 -0.12321824439 -1.342263317 
0.3763240494 -0.81296413865 -2.0722638034 0.36421549822 -0.20609830915 1.9641776245 0.42095020392 -0.12907557018 -1.3628115931 
0.30758083525 -0.22167275512 -1.2310524493 0.10518839886 -0.44286694174 1.9412269664 0.2012228566 -0.23691334096 -1.3678286477 
0.36823240031 -0.39244891384 -2.0341005855 -0.29432779746 -0.21781272338 2.2952342016 -0.1114530596 -0.15614825918 1.9593858074 
0.010812246935 -0.090808105472 -1.291892094 -0.24605708125 -0.22104749551 -1.4101784561 -0.20965896395 -0.17988663327 -1.2958676534 
-0.30561963284 -0.33046834383 -2.0690660943 -0.13009365991 -0.22809330651 -1.3575103007 -0.62090287175 -0.29533677138 1.68841764 
-0.46220867831 -0.12646263803 -1.0068430542 -0.28874255736 -0.13926126003 -1.8447590379 -0.58270018486 -0.12590993332 -1.165123337 
-0.62032817904 -0.38461553338 -1.7314137216 -0.81243804651 -0.34179495477 1.974700761 -0.67730336104 -0.19118895683 -1.1166248747 
-0.60414396127 -0.078422615575 -1.1374829776 -0.54168783736 -0.17534349885 -0.9917391963 -1.1965981061 -0.35058048475 1.4397728587 
-0.54769600912 -0.20157151916 -0.91136617214 -1.150990397 -0.4574867819 -1.6956044596 -0.68952628683 -0.21272883335 -0.93765389726 
-1.3395566834 -0.55626127516 1.5629215714 -0.73774903202 -0.20854420172 -0.97869445266 -0.70221604489 -0.13032882702 -0.720188393 
-0.71385850368 -0.14967939289 -0.4954669002 -0.82349405444 -0.16199762451 0.58714260422 -1.0268360827 -0.20412914971 0.63157737958 
-1.2870928122 -0.23709046521 -1.6301549535 -0.85279643588 -0.15240677487 -0.59145831862 -0.94495362187 -0.18504298519 -0.70427484259 
-0.89346555044 -0.20986007226 0.60473962621 -1.849912073 -0.33258484186 -1.3339155172 -1.5014074037 -0.42613980685 1.0264875655 
-1.0385055113 -0.15589509054 -0.73833050328 -0.88035268572 -0.16911607058 0.49360553405 -0.9466625783 -0.10413931111 0.54282583197 
-1.7282836588 -0.080968853475 -1.1077656889 -1.7286187471 0.047221039345 0.93245810355 -1.0397760722 -0.21305157414 -0.74507073934 
-1.0851260383 -0.2001079222 -0.47703003359 -0.98111320238 -0.18512544883 -0.44187901477 -0.90246515452 -0.094598485009 0.31718915107 
-0.93387325439 -0.10105118554 0.54115821549 -1.9827144633 -0.34324001533 0.82393771381 -1.0617189466 -0.22430872234 -0.47315363477 
-1.1161128629 -0.1762469779 -0.13305631067 -1.1161946995 -0.14537316713 -0.060507123417 -1.1613083046 -0.15457447837 0.23441550782 
-1.0699885524 -0.0064220118721 0.43568843159 -2.1110766081 -0.11954484867 -0.70436718805 -2.1537638895 -0.48272126689 -0.26390601689 
-1.9777839997 -0.32512092877 0.2550752655 -1.982768155 -0.17411354374 0.28769081741 -1.0998924434 -0.069169052043 -0.37251658613 
-1.1602774308 -0.12900776743 0.29367749995 -1.9684821027 -0.25534012225 0.3041909528 -1.3150349511 -0.14891611363 -0.12244031137 
-1.2817394853 -0.026199038975 -0.045058424827 
radius 1 100 double
0.03 0.03 0.03 0.03 0.03 0.03 0.03 0.03 0.03 
0.03 0.03 0.03 0.03 0.03 0.03 0.03 0.03 0.03 
0.03 0.03 0.03 0.03 0.03 0.03 0.03 0.03 0.03 
0.03 0.03 0.03 0.03 0.03 0.03 0.03 0.03 0.03 
0.03 0.03 0.03 0.03 0.03 0.03 0.03 0.03 0.03 
0.03 0.03 0.03 0.03 0.03 0.03 0.03 0.03 0.03 
0.03 0.03 0.03 0.03 0.03 0.03 0.03 0.03 0.03 
0.03 0.03 0.03 0.03 0.03 0.03 0.03 0.03 0.03 
0.03 0.03 0.03 0.03 0.03 0.03 0.03 0.03 0.03 
0.03 0.03 0.03 0.03 0.03 0.03 0.03 0.03 0.03 
0.03 0.03 0.03 0.03 0.03 0.03 0.03 0.03 0.03 
0.03 
