# vtk DataFile Version 5.1
Generated by LIGGGHTS
ASCII
DATASET POLYDATA
POINTS 100 float
0.0337002 1.80574 -0.574079 0.134672 1.82165 -0.58754 -0.0387008 1.80421 -0.567163 
0.0943892 1.78689 -0.559816 0.184719 1.80065 -0.559416 0.243852 1.8 -0.543408 
-0.134025 1.82207 -0.556884 0.0666126 1.76731 -0.51034 0.15655 1.76464 -0.520561 
0.217674 1.75843 -0.507341 -0.0876375 1.79969 -0.525629 -0.00248155 1.78056 -0.524305 
0.304636 1.79307 -0.517455 -0.212046 1.83272 -0.529711 -0.0204487 1.83691 -0.510721 
-0.269485 1.86275 -0.522263 -0.162028 1.86606 -0.527002 -0.1552 1.80365 -0.503713 
-0.0456888 1.78658 -0.482591 0.183949 1.81553 -0.499239 -0.311462 1.84931 -0.481529 
-0.103353 1.84524 -0.479129 0.156575 1.75135 -0.462054 0.0231686 1.77695 -0.470035 
-0.204658 1.81561 -0.471325 -0.155557 1.86576 -0.45484 -0.246173 1.86918 -0.467349 
-0.150607 1.80692 -0.443971 -0.0866049 1.80095 -0.440462 -0.275154 1.82175 -0.442463 
-0.00575608 1.80673 -0.426646 -0.397799 1.89483 -0.442409 -0.339606 1.87988 -0.438099 
-0.206493 1.87696 -0.423011 -0.287144 1.90941 -0.437197 -0.168891 1.92429 -0.438585 
-0.357989 1.94064 -0.437674 -0.33765 2.02272 -0.432674 -0.391418 2.05089 -0.43142 
-0.297663 2.0688 -0.435691 -0.33171 1.83313 -0.40025 -0.20211 1.81757 -0.410505 
-0.130728 1.83655 -0.395731 -0.398106 1.85986 -0.39347 -0.27154 1.8529 -0.39076 
-0.412345 1.92965 -0.395174 -0.293661 1.95414 -0.38987 -0.40549 1.99103 -0.411355 
-0.282164 2.01177 -0.403459 -0.347203 2.07782 -0.401093 -0.259483 2.06534 -0.388765 
-0.204641 1.85217 -0.36122 -0.154601 1.89076 -0.386191 -0.325141 1.90327 -0.383661 
-0.256039 1.90928 -0.373788 -0.439925 1.98101 -0.358344 -0.383451 1.96071 -0.352057 
-0.358743 2.00883 -0.378244 -0.345847 2.11464 -0.353733 -0.31015 1.83816 -0.343795 
-0.257515 1.86196 -0.326975 -0.431808 1.89106 -0.353456 -0.365337 1.87448 -0.345409 
-0.309716 1.89805 -0.325464 -0.258883 1.97343 -0.342193 -0.401027 2.04143 -0.350254 
-0.309729 2.02927 -0.350296 -0.258993 2.05431 -0.329512 -0.266231 2.11264 -0.341583 
-0.414302 1.8531 -0.310416 -0.257597 1.91806 -0.301502 -0.468509 1.93787 -0.313595 
-0.356503 1.93373 -0.30546 -0.301479 1.95898 -0.299257 -0.419352 2.00595 -0.304478 
-0.346415 1.99381 -0.318492 -0.373174 2.04748 -0.29459 -0.322964 2.07563 -0.312912 
-0.463182 1.86541 -0.266464 -0.341089 1.85768 -0.293166 -0.422379 1.90823 -0.276511 
-0.398311 1.96246 -0.266647 -0.298184 2.01858 -0.292368 -0.416831 2.09272 -0.259768 
-0.389157 1.85799 -0.256162 -0.31347 1.89569 -0.255854 -0.524825 1.90086 -0.236616 
-0.339514 1.94871 -0.245409 -0.357775 2.00541 -0.254016 -0.305512 2.07694 -0.255522 
-0.256362 2.16229 -0.237224 -0.480659 1.87312 -0.20686 -0.383295 1.88561 -0.203213 
-0.445937 1.92137 -0.215165 -0.502631 1.9292 -0.188498 -0.362577 1.93442 -0.173585 
-0.507182 1.8843 -0.142948 -0.435149 1.87636 -0.167127 -0.488115 1.89504 -0.0530406 
-0.542928 1.90795 -0.0323312 
VERTICES 101 100
OFFSETS vtktypeint64
0 1 2 3 4 5 6 7 8 
9 10 11 12 13 14 15 16 17 
18 19 20 21 22 23 24 25 26 
27 28 29 30 31 32 33 34 35 
36 37 38 39 40 41 42 43 44 
45 46 47 48 49 50 51 52 53 
54 55 56 57 58 59 60 61 62 
63 64 65 66 67 68 69 70 71 
72 73 74 75 76 77 78 79 80 
81 82 83 84 85 86 87 88 89 
90 91 92 93 94 95 96 97 98 
99 100 
CONNECTIVITY vtktypeint64
0 1 2 3 4 5 6 7 8 
9 10 11 12 13 14 15 16 17 
18 19 20 21 22 23 24 25 26 
27 28 29 30 31 32 33 34 35 
36 37 38 39 40 41 42 43 44 
45 46 47 48 49 50 51 52 53 
54 55 56 57 58 59 60 61 62 
63 64 65 66 67 68 69 70 71 
72 73 74 75 76 77 78 79 80 
81 82 83 84 85 86 87 88 89 
90 91 92 93 94 95 96 97 98 
99 
POINT_DATA 100
FIELD FieldData 4
id 1 100 int
51 98 38 90 66 71 95 49 41 
74 80 88 94 60 37 45 24 35 
64 86 32 19 22 61 4 30 53 
68 1 46 78 9 20 70 59 54 
7 56 44 72 33 85 14 82 93 
40 23 92 31 65 76 26 6 12 
67 10 77 3 15 97 27 81 52 
91 99 48 11 36 13 73 55 17 
84 57 21 89 83 87 18 39 96 
16 58 75 42 69 28 43 100 25 
2 50 29 5 79 62 47 63 34 
8 
type 1 100 int
1 1 1 1 1 1 1 1 1 
1 1 1 1 1 1 1 1 1 
1 1 1 1 1 1 1 1 1 
1 1 1 1 1 1 1 1 1 
1 1 1 1 1 1 1 1 1 
1 1 1 1 1 1 1 1 1 
1 1 1 1 1 1 1 1 1 
1 1 1 1 1 1 1 1 1 
1 1 1 1 1 1 1 1 1 
1 1 1 1 1 1 1 1 1 
1 1 1 1 1 1 1 1 1 
1 
v 3 100 double
0.56749071123 -0.72438814257 0.52887776154 1.4091138456 -0.21781930731 0.17595514191 0.94541677606 -0.10301377695 -0.19367268207 
1.2638788118 -0.11656407883 0.094656729114 1.4121426728 0.064546066693 0.30528403149 1.2241223867 -0.37085231844 0.63800922141 
0.85896371347 -0.048793260398 -0.18718141625 1.0333173563 -0.1027307316 -0.027141420379 1.1567116387 -0.034596075819 0.027901445543 
1.0713555591 -0.23770446038 0.57927515211 0.81064100132 -0.25358182458 -0.21320274542 1.0081894531 -0.10408739841 -0.099295098662 
1.246208658 -0.23511807767 0.99680685514 0.78198389375 -0.17773768179 -0.21806562422 1.2182627323 0.040995540818 -0.041175908607 
0.63632386448 -0.18575286358 -0.20218840363 0.6673034447 -0.23813012099 -0.12055079734 0.87750195081 -0.20546811177 -0.22923358456 
0.81125369895 -0.14920324559 -0.23075600842 1.6810879117 -0.42165341119 0.46162211978 0.49096676561 -0.11162616338 -0.34538365603 
0.90442566402 -0.15895297585 -0.14638209058 1.2080873674 -0.28309985791 -0.028770469476 0.99607946849 -0.19445716519 -0.089383851771 
0.65459341398 -0.81833392589 -0.25832446247 0.7815161254 -0.038116646291 -0.2888061353 0.91511233664 -0.33325883431 -0.29668675496 
0.54883125948 -0.084425747202 -0.22346059594 0.57815240018 -0.39386435064 -0.4586033791 0.47587214927 -0.10189290949 -0.34461731418 
0.66449965298 -0.3408229856 -0.21203082599 0.32507220549 -0.20924079782 -0.13256969323 0.34656623457 -0.20776876407 -0.3655982078 
0.73005272814 -0.097701685467 -0.15748510547 0.55230407223 -0.52984706501 -0.20058570125 0.70464278368 -0.046999677146 -0.35537656696 
0.29049207105 -0.10780289346 -0.044268793013 -0.19651029923 -0.70108221997 0.037134464393 -0.17250690886 -0.58735151534 0.42490116049 
-0.29294559381 -0.52837990326 0.14153795619 0.39344019666 -0.067837262411 -0.16914181515 0.53694577413 -0.092714022409 -0.18316459139 
0.55650860889 -0.08573522233 -0.21726504947 0.15949521298 -0.051025569541 -0.1020644472 0.59987995965 -0.5512777392 -0.050967307453 
-0.0052733675975 -0.39108681181 -0.055549227692 0.25628197293 -0.67713982286 -0.20507845183 -0.11939418988 -1.0648285708 -0.024804546239 
0.067735807906 -0.60064908581 -0.153273016 -0.093913942191 -0.64264006416 0.37538051534 -0.21878787316 -0.54093718335 0.099004742635 
0.3587928396 -0.1228913636 -0.23337775422 0.66007706283 -0.039728276265 -0.19946979685 0.12606575907 -0.60257454219 -0.093080254175 
0.39279475259 -0.50242334355 0.27530007196 -0.29626794181 -1.1047947948 -0.0028019884173 -0.20789985739 -0.7429457272 0.34137469437 
-0.16577699534 -0.89133879385 -0.023590394443 -0.012338850063 -0.27087654603 0.066709436003 0.26739361015 -0.043015050137 -0.11804171542 
0.31097572129 -0.065480705645 -0.25266266325 -0.22058284509 -0.43617716874 -0.18605631447 0.05441489663 0.031123466584 -0.043867488771 
0.49580761127 -0.39804325438 -0.12899893228 0.1854155339 -0.99104919443 0.1445452518 0.0010065061277 -0.96286653729 -0.12033589247 
-0.13793257086 -0.89634138583 -0.079448843626 -0.31016219987 -0.54365253421 0.090542864713 -0.21454746896 -0.52623247222 0.18363730612 
0.054811913076 0.0037857965372 0.090640333953 0.42820534735 -0.37263269362 0.070247266458 -0.46068079872 -0.62412838677 0.23420694145 
-0.093644754515 -1.039042697 0.20066516835 -0.10705583184 -0.85152980513 0.13299880621 -0.057198687246 -0.85759909306 0.13540794974 
-0.048492677462 -0.82602036207 0.050898910387 -0.076468145029 -0.50197212495 -0.051015295714 -0.005137887464 -0.67811704899 -0.24724123351 
-0.11036391216 0.057815355721 0.022160511793 0.04430515761 -0.038134350171 -0.10856184781 0.2792433693 -0.29052006264 0.11963889262 
0.33472935032 -0.37947404059 0.32323411537 -0.44315737383 -0.77456485292 0.011954470231 0.65481052803 -0.54863774563 0.18424276261 
0.098441759757 0.067352374282 0.064215426065 -0.1175006235 -0.077994004971 0.042994887955 -0.35343068867 -0.087183543042 0.0094525678016 
-0.22194108269 -0.18913115994 0.3963827803 0.091288875368 -0.1322994622 0.37483896106 0.057499611642 -0.42762793779 -0.2720047724 
-0.8332800164 -0.56463395468 0.35045945302 -0.27137775648 0.027931831383 0.011163633915 -0.32557740182 -0.058644082147 0.18199240858 
-0.44986520336 0.16393561648 0.021815053742 -0.59852294597 -0.04283500126 0.13867772822 -0.2257703347 -0.33898637398 0.65041499857 
-0.20085881433 0.053213300963 0.24174403387 -0.31655332236 -0.21793696989 0.11130511799 -0.23231685748 0.077734132971 0.35148631413 
-0.10476765995 0.11920695418 0.66309340926 
radius 1 100 double
0.03 0.03 0.03 0.03 0.03 0.03 0.03 0.03 0.03 
0.03 0.03 0.03 0.03 0.03 0.03 0.03 0.03 0.03 
0.03 0.03 0.03 0.03 0.03 0.03 0.03 0.03 0.03 
0.03 0.03 0.03 0.03 0.03 0.03 0.03 0.03 0.03 
0.03 0.03 0.03 0.03 0.03 0.03 0.03 0.03 0.03 
0.03 0.03 0.03 0.03 0.03 0.03 0.03 0.03 0.03 
0.03 0.03 0.03 0.03 0.03 0.03 0.03 0.03 0.03 
0.03 0.03 0.03 0.03 0.03 0.03 0.03 0.03 0.03 
0.03 0.03 0.03 0.03 0.03 0.03 0.03 0.03 0.03 
0.03 0.03 0.03 0.03 0.03 0.03 0.03 0.03 0.03 
0.03 0.03 0.03 0.03 0.03 0.03 0.03 0.03 0.03 
0.03 
