# vtk DataFile Version 5.1
Generated by LIGGGHTS
ASCII
DATASET POLYDATA
POINTS 100 float
0.0617324 1.2997 -0.574748 -0.0846449 1.31193 -0.56679 -0.1608 1.3317 -0.561959 
0.0559158 1.26772 -0.52268 0.227807 1.26952 -0.525742 0.291593 1.28341 -0.519637 
-0.302838 1.34405 -0.490456 0.261919 1.7525 -0.493903 0.358556 1.24854 -0.446726 
0.41489 1.26989 -0.436842 0.188133 1.74392 -0.46651 0.315263 1.75053 -0.466508 
0.308709 1.22562 -0.422431 -0.35999 1.35844 -0.453188 0.241363 1.73421 -0.440578 
0.295133 1.72792 -0.41471 -0.403508 1.36448 -0.41219 0.358181 1.72584 -0.399327 
-0.370333 1.33659 -0.370696 0.314602 1.72215 -0.358251 0.411862 1.72424 -0.372574 
0.492352 1.2305 -0.313183 -0.446571 1.37523 -0.366819 0.368057 1.70823 -0.33483 
0.44566 1.71258 -0.32439 -0.47894 1.37262 -0.281146 -0.524814 1.41217 -0.281443 
0.361413 1.712 -0.27532 0.419205 1.69604 -0.27314 0.478792 1.70292 -0.273747 
0.448118 1.71932 -0.224558 0.532275 1.20152 -0.19928 -0.526798 1.39561 -0.22002 
0.390347 1.70356 -0.221078 0.501773 1.69326 -0.218449 0.452394 1.67883 -0.175331 
0.519772 1.6827 -0.162161 0.563259 1.20045 -0.130468 0.477657 1.71662 -0.136169 
0.437747 1.68079 -0.104964 0.49661 1.66917 -0.104724 0.561407 1.70072 -0.122895 
-0.581033 1.42974 -0.104878 0.550233 1.67754 -0.0686909 0.498121 1.65875 -0.045662 
-0.55392 1.4095 -0.0503049 0.547193 1.66123 -0.0107388 0.488323 1.64808 0.0125157 
0.551495 1.15496 0.0446251 0.537023 1.6494 0.0522915 -0.57565 1.43999 0.0495535 
0.477555 1.63767 0.0745603 0.580448 1.17743 0.115515 -0.566742 1.4494 0.111182 
0.464045 1.62801 0.133158 0.523865 1.63654 0.122875 -0.526628 1.42924 0.151014 
0.553493 1.15903 0.190659 0.445904 1.61872 0.190241 0.504871 1.62916 0.186526 
-0.475516 1.43022 0.186899 -0.497488 1.4474 0.240025 0.3627 1.61234 0.262032 
0.419617 1.60915 0.24332 0.478999 1.61732 0.24069 0.512017 1.14239 0.288121 
0.478468 1.13797 0.337661 -0.453872 1.45579 0.305028 0.351974 1.59282 0.317744 
0.432936 1.60389 0.302248 0.309334 1.58318 0.35884 0.400781 1.59682 0.352409 
-0.454313 1.48789 0.355717 -0.342104 1.46766 0.385336 -0.401734 1.47151 0.379529 
0.357947 1.58853 0.393597 0.231827 1.58971 0.416137 0.302809 1.61897 0.406547 
-0.362626 1.493 0.435699 0.289433 1.57367 0.443546 0.344474 1.60192 0.450525 
-0.309401 1.49549 0.467803 -0.147553 1.50013 0.46905 -0.0466406 1.52356 0.459173 
0.231619 1.56309 0.469913 -0.206972 1.49374 0.474875 -0.0971795 1.50702 0.500911 
0.119052 1.54563 0.510965 0.295695 1.59697 0.49848 -0.259842 1.50409 0.501324 
-0.0215201 1.52052 0.513703 0.0378698 1.52901 0.512162 0.174032 1.56548 0.524537 
0.230541 1.58563 0.52551 -0.168878 1.51798 0.535977 -0.110326 1.52846 0.555404 
-0.0515141 1.53786 0.56269 0.0931522 1.5632 0.563122 -0.0441104 1.04193 0.56947 
0.0289095 1.05876 0.580446 
VERTICES 101 100
OFFSETS vtktypeint64
0 1 2 3 4 5 6 7 8 
9 10 11 12 13 14 15 16 17 
18 19 20 21 22 23 24 25 26 
27 28 29 30 31 32 33 34 35 
36 37 38 39 40 41 42 43 44 
45 46 47 48 49 50 51 52 53 
54 55 56 57 58 59 60 61 62 
63 64 65 66 67 68 69 70 71 
72 73 74 75 76 77 78 79 80 
81 82 83 84 85 86 87 88 89 
90 91 92 93 94 95 96 97 98 
99 100 
CONNECTIVITY vtktypeint64
0 1 2 3 4 5 6 7 8 
9 10 11 12 13 14 15 16 17 
18 19 20 21 22 23 24 25 26 
27 28 29 30 31 32 33 34 35 
36 37 38 39 40 41 42 43 44 
45 46 47 48 49 50 51 52 53 
54 55 56 57 58 59 60 61 62 
63 64 65 66 67 68 69 70 71 
72 73 74 75 76 77 78 79 80 
81 82 83 84 85 86 87 88 89 
90 91 92 93 94 95 96 97 98 
99 
POINT_DATA 100
FIELD FieldData 4
id 1 100 int
78 64 1 80 38 37 19 47 51 
61 8 63 88 95 34 62 35 79 
30 43 50 49 14 16 28 68 24 
100 29 18 5 90 53 69 17 42 
10 41 96 84 73 21 70 39 83 
6 75 77 98 81 59 48 22 85 
40 44 54 66 58 89 4 60 25 
87 72 74 86 67 92 2 57 82 
45 13 46 56 15 65 32 52 3 
26 99 12 11 55 91 36 9 31 
33 20 97 7 93 23 27 76 94 
71 
type 1 100 int
1 1 1 1 1 1 1 1 1 
1 1 1 1 1 1 1 1 1 
1 1 1 1 1 1 1 1 1 
1 1 1 1 1 1 1 1 1 
1 1 1 1 1 1 1 1 1 
1 1 1 1 1 1 1 1 1 
1 1 1 1 1 1 1 1 1 
1 1 1 1 1 1 1 1 1 
1 1 1 1 1 1 1 1 1 
1 1 1 1 1 1 1 1 1 
1 1 1 1 1 1 1 1 1 
1 
v 3 100 double
1.9758116242 -0.21076485928 0.15198377383 1.7565103722 -0.47419600399 -0.071084145923 1.6174843567 -0.09756793647 -0.2013431347 
1.8865378848 -0.24682330438 0.11117937835 1.8064852327 -0.26883673823 0.71479336647 1.7098979603 0.01139086027 1.1271344982 
1.6183310051 -0.40441734141 -1.0369286592 0.65451222214 -0.17410226804 0.43182335137 1.5631511889 -0.30593812746 1.1862699091 
1.5772894051 -0.35378976575 1.2427560081 0.54599917493 -0.15152601384 0.37753845499 0.61927187368 -0.15120903954 0.5021958871 
1.4584620372 -0.25962922123 1.0151074309 1.3909335012 -0.25696785864 -1.1083113376 0.54547970233 -0.11474182534 0.38539166236 
0.5040622155 -0.12882906213 0.46777025873 1.3299612525 -0.22113192127 -1.2220715382 0.5258072887 -0.13762280003 0.49687775415 
1.2937085635 -0.28913279532 -1.2398468362 0.49993405857 -0.091460801573 0.4734159104 0.47681161763 -0.10914839684 0.59696635615 
1.1931923388 -0.37872354574 1.6365911865 0.99279467313 -0.19564520795 -1.5544247327 0.45308691808 -0.11364758072 0.56770540382 
0.43096465736 -0.131625119 0.62406485086 0.80204582594 -0.16360846169 -1.3746470455 0.6319361666 -0.2762758665 -1.5123899826 
0.43386012633 -0.1138766012 0.56585242638 0.41253588209 -0.13036457693 0.62359218399 0.37783037785 -0.041261601707 0.6924263287 
0.37264758764 -0.12213822318 0.74189496292 0.88647675564 -0.28145397737 1.9573658143 0.63870898361 -0.27424143212 -1.5068269347 
0.40271894101 -0.17886541582 0.61885376178 0.43310651509 0.0066831048535 0.68777471105 0.49827605685 -0.20294440585 0.68559288687 
0.18544124942 -0.14921370147 0.76426247733 0.60178963347 -0.060052384756 2.1113810063 0.20949856225 -0.19713863224 0.86655184411 
0.31843882907 -0.21609986901 0.76615146325 0.33687780496 -0.11643120069 0.90046539199 0.070415874033 -0.18481636683 0.90246367147 
0.24687017448 -0.37119472099 -1.4495884717 0.20085339803 -0.099599649729 0.96193991384 0.19593435923 -0.10714787326 0.85801427141 
0.21241010916 -0.26421596331 -1.6350497219 -0.00012795508905 -0.060407293743 0.96498163137 0.054706551626 -0.12065737714 0.71462088906 
-0.26089692736 -0.38793593011 2.1261123514 -0.151031597 -0.17587674499 0.97214616281 -0.26295944616 -0.17578501885 -1.4406440608 
-0.31137057954 -0.14553142881 0.72498519285 -0.18646595224 -0.050944888067 2.0484702298 -0.33911833548 -0.15575165314 -1.5965624621 
-0.083556523388 -0.10851159665 0.79254318628 -0.087402031341 -0.10031450773 0.75767981509 -0.48953986672 -0.20880666016 -1.4623028326 
-0.51424569845 -0.076161737357 2.0000549493 -0.31454280358 -0.12983069544 0.73867633958 -0.31053164346 -0.12303838293 0.8224340462 
-0.62933113212 -0.23373632872 -1.3805465543 -0.58107591004 -0.22563919924 -1.3632185689 -0.35812394775 -0.27241846194 0.84471900569 
-0.39875806823 -0.12602770546 0.69749879422 -0.38731347542 -0.17893335415 0.79758087199 -1.1850976779 -0.010245538951 1.9100952496 
-1.249664235 -0.23433495421 1.8076733877 -0.87384737397 -0.21465478382 -1.0779437199 -0.6604848607 -0.17088378044 0.82182457786 
-0.67333173123 -0.17040755509 0.80619326432 -0.7263925406 -0.16990213962 0.75374546405 -0.65539895633 -0.18368105157 0.81590653274 
-0.81601901895 -0.22322713017 -1.0720211065 -0.80076909095 -0.2703973432 -0.92851496327 -0.77117382605 -0.25926258698 -1.1957862978 
-0.73524472272 -0.084162167858 0.75301727113 -0.9978772988 -0.72395239848 0.17927343891 -0.87829614582 -0.16823419087 0.73240714707 
-1.026102876 -0.38004836631 -0.9656199939 -0.96688783065 -0.24028688901 0.614023968 -0.97062358545 -0.20437558108 0.72608143302 
-1.024792273 -0.19486619604 -0.77177199795 -1.0368634966 -0.18701292348 -0.38108364604 -0.85626937133 -0.064026498598 -0.28001110672 
-1.1562503771 -0.21499150771 0.44422876321 -1.073109822 -0.31431213094 -0.77075954821 -1.1986993649 -0.18200804538 -0.12668239391 
-1.1571898945 -0.088700512901 0.38512740722 -1.2165060715 -0.095021259951 0.58442219659 -1.0435296676 -0.45095807715 -0.6654138079 
-1.2812102927 -0.16457591379 -0.064227087879 -1.2658220374 -0.20727737516 0.17496313887 -1.1545594795 -0.1859287776 0.51843796899 
-1.1393102335 -0.22278982715 0.4509802953 -1.319555307 -0.16281723458 -0.37093504233 -1.3455667411 -0.20778179907 -0.14902636319 
-1.3535382605 -0.18761029054 -0.099759107562 -1.4044922261 -0.15265490793 0.26773664942 -2.2051940878 -0.32354777314 -0.25843082565 
-2.3587991626 -0.45364539153 0.23951724429 
radius 1 100 double
0.03 0.03 0.03 0.03 0.03 0.03 0.03 0.03 0.03 
0.03 0.03 0.03 0.03 0.03 0.03 0.03 0.03 0.03 
0.03 0.03 0.03 0.03 0.03 0.03 0.03 0.03 0.03 
0.03 0.03 0.03 0.03 0.03 0.03 0.03 0.03 0.03 
0.03 0.03 0.03 0.03 0.03 0.03 0.03 0.03 0.03 
0.03 0.03 0.03 0.03 0.03 0.03 0.03 0.03 0.03 
0.03 0.03 0.03 0.03 0.03 0.03 0.03 0.03 0.03 
0.03 0.03 0.03 0.03 0.03 0.03 0.03 0.03 0.03 
0.03 0.03 0.03 0.03 0.03 0.03 0.03 0.03 0.03 
0.03 0.03 0.03 0.03 0.03 0.03 0.03 0.03 0.03 
0.03 0.03 0.03 0.03 0.03 0.03 0.03 0.03 0.03 
0.03 
