# vtk DataFile Version 5.1
Generated by LIGGGHTS
ASCII
DATASET POLYDATA
POINTS 63 float
-0.687007 -0.799821 -0.766964 -0.685749 -0.763878 -0.689551 -0.60589 -0.665604 -0.604909 
0.0452656 0.291065 -0.575392 0.111497 0.280204 -0.568681 -0.0877457 0.314645 -0.574365 
0.186366 0.277152 -0.550526 -0.024662 0.289359 -0.570022 -0.156201 0.319692 -0.56356 
0.247733 0.25091 -0.51468 0.304786 0.264382 -0.501719 0.364019 0.2681 -0.47153 
-0.273163 0.339849 -0.517152 -0.299403 0.322957 -0.465625 -0.336611 0.365655 -0.486792 
-0.644988 -0.348325 -0.41785 0.436658 0.234793 -0.382821 -0.399178 0.360532 -0.42861 
-0.442659 0.36794 -0.379683 0.48826 0.229424 -0.32798 -0.480706 0.384949 -0.336155 
-0.506724 0.380541 -0.282165 0.553544 0.216178 -0.210424 -0.507547 0.370731 -0.22234 
0.572984 0.204656 -0.148761 -0.623929 -0.12386 -0.172747 -0.570089 0.415053 -0.168217 
-0.600223 -0.110897 -0.10054 0.575907 0.181367 -0.060994 -0.585855 0.425977 -0.099877 
-0.542449 0.385685 -0.0902642 -0.608862 -0.0662503 -0.0306287 -0.593326 0.441075 -0.0350831 
-0.573076 -0.089475 0.011839 0.548212 0.138157 0.0804833 -0.552973 0.411486 0.0575206 
-0.597512 0.448995 0.0328947 -0.568242 -0.0726538 0.0829673 0.533822 0.126647 0.142315 
0.575761 0.169994 0.159826 -0.548779 0.425803 0.118752 0.529657 0.134538 0.212892 
-0.528815 0.428147 0.177921 -0.563433 -0.0210124 0.209712 -0.56163 0.474658 0.19689 
0.524919 0.141015 0.274421 0.473773 0.105306 0.280174 -0.509382 -0.0291857 0.295638 
0.484608 0.130031 0.333856 -0.517304 0.472013 0.274176 -0.454038 -0.0251488 0.357461 
-0.442801 0.470737 0.358095 0.372774 0.0951524 0.432263 -0.401375 0.000563686 0.436519 
-0.343864 -0.0131734 0.457096 0.331637 0.0937011 0.479119 -0.290052 0.0135984 0.513292 
0.267618 0.0861887 0.518023 0.064164 0.0448801 0.567221 0.151369 0.0705095 0.566751 
-0.164238 0.0358668 0.566005 -0.0683245 0.02911 0.569292 -0.0136977 0.0505508 0.584843 

VERTICES 64 63
OFFSETS vtktypeint64
0 1 2 3 4 5 6 7 8 
9 10 11 12 13 14 15 16 17 
18 19 20 21 22 23 24 25 26 
27 28 29 30 31 32 33 34 35 
36 37 38 39 40 41 42 43 44 
45 46 47 48 49 50 51 52 53 
54 55 56 57 58 59 60 61 62 
63 
CONNECTIVITY vtktypeint64
0 1 2 3 4 5 6 7 8 
9 10 11 12 13 14 15 16 17 
18 19 20 21 22 23 24 25 26 
27 28 29 30 31 32 33 34 35 
36 37 38 39 40 41 42 43 44 
45 46 47 48 49 50 51 52 53 
54 55 56 57 58 59 60 61 62 

POINT_DATA 63
FIELD FieldData 4
id 1 63 int
13 32 93 77 39 84 73 83 21 
75 81 44 42 10 96 26 48 5 
17 89 18 69 40 29 72 31 100 
23 2 16 50 33 62 55 58 34 
28 91 25 87 43 82 63 99 79 
92 56 27 15 8 20 47 65 76 
97 9 11 57 7 3 36 12 52 

type 1 63 int
1 1 1 1 1 1 1 1 1 
1 1 1 1 1 1 1 1 1 
1 1 1 1 1 1 1 1 1 
1 1 1 1 1 1 1 1 1 
1 1 1 1 1 1 1 1 1 
1 1 1 1 1 1 1 1 1 
1 1 1 1 1 1 1 1 1 

v 3 63 double
-0.34754839298 -3.7489463139 -2.2994214096 -0.25738251224 -3.7613735988 -2.1681552904 -0.13376589218 -3.3917870086 -2.1361190784 
2.1906149524 -0.44563810581 0.35799771948 2.2330505721 -0.60429014719 0.2817784601 2.1662674165 -0.39242314821 -0.2946915653 
1.977146041 -0.25058659839 0.75880684927 1.9186744234 -0.27180386255 -0.33032213949 2.1839555553 -0.13777188299 -0.26534784196 
1.9078860866 -0.61761031111 0.8334386883 1.7058978567 -0.0946850973 1.1747109311 1.7400660747 -0.41283315078 1.2183552377 
1.9554861113 -0.0759644407 -0.94281520184 1.5896501854 -0.34489610859 -1.1604465338 1.6525336861 -0.32997663974 -1.4009761685 
-0.23307714933 -2.5127914851 -2.2326293663 1.4712682567 -0.21430464027 1.7052536065 1.7226270264 -0.26568944035 -1.5889879145 
1.0930234432 -0.16483525989 -1.816203809 1.4422396924 -0.3368170028 1.7697441259 1.2730147004 -0.39788098819 -1.5957793622 
0.94850077091 0.0044870143027 -1.7126840765 1.0314754829 -0.19197102659 2.10600994 0.76933558294 -0.33008443142 -1.8335446127 
0.60992009342 0.060351772009 2.2289085131 -0.23610702131 -1.4359462416 -2.1112355067 0.64641316146 0.10213015473 -1.8647848167 
-0.38631279904 -0.83091587246 -2.2571114787 0.49348140404 -0.19444828523 2.2450534181 0.30013285578 -0.42146220455 -2.055629725 
0.32211699926 -0.37705435148 -1.9687533764 -0.30700137325 -0.64471255692 -2.3958152382 0.29982217848 -0.12960908073 -2.0977643838 
-0.32776194208 -0.39304270591 -2.2284296546 -0.24990569939 -0.30619156289 1.8206789505 -0.16313866205 -0.38578719906 -1.8836411576 
-0.28032115923 -0.65473255882 -2.1796228822 -0.4971965591 -0.33703090607 -2.238450339 -0.6379027178 -0.17295882833 1.7930211629 
-0.96249949704 -0.13219424941 2.1232485782 -0.40419625936 -0.22463288223 -1.8600985587 -0.6054074093 -0.18203618649 1.9002501781 
-0.55929699658 -0.47030302597 -1.7774936893 -0.82708383045 -0.27691993736 -1.9740411015 -0.71116613412 -0.54655119504 -1.8532401594 
-0.73260947101 -0.3167391756 1.7277183366 -1.0452166289 -0.075661786985 1.627106854 -1.156469776 0.11067989683 -2.0424642656 
-1.1500265518 -0.19250099786 1.7329628847 -1.0190610397 -0.099452574598 -1.9298355571 -1.5870136462 -0.24969897357 -1.7459580116 
-1.3959362316 -0.33904533407 -1.6042141564 -1.743030088 -0.48090573091 1.3206749339 -1.7906583365 -0.36965231331 -1.3811416583 
-1.7764194974 -0.38570877871 -1.2599099699 -1.7796740108 -0.37357558544 1.3422481269 -1.9016605608 0.033070898468 -1.3043653626 
-1.8818503978 -0.29317522654 0.72996081458 -1.9647351414 -0.15476573563 0.5589881074 -2.1790802787 -0.070522632634 0.30070831095 
-2.1424816584 -0.046144233396 -0.77573090433 -2.1352791137 -0.5101002003 -0.33148181249 -2.3581938871 -0.11945432435 -0.33119642225 

radius 1 63 double
0.03 0.03 0.03 0.03 0.03 0.03 0.03 0.03 0.03 
0.03 0.03 0.03 0.03 0.03 0.03 0.03 0.03 0.03 
0.03 0.03 0.03 0.03 0.03 0.03 0.03 0.03 0.03 
0.03 0.03 0.03 0.03 0.03 0.03 0.03 0.03 0.03 
0.03 0.03 0.03 0.03 0.03 0.03 0.03 0.03 0.03 
0.03 0.03 0.03 0.03 0.03 0.03 0.03 0.03 0.03 
0.03 0.03 0.03 0.03 0.03 0.03 0.03 0.03 0.03 

