# vtk DataFile Version 5.1
Generated by LIGGGHTS
ASCII
DATASET POLYDATA
POINTS 53 float
-0.732347 -0.86171 -0.806674 -0.732717 -0.740092 -0.732386 -0.672178 -0.690758 -0.645242 
0.0837102 0.275625 -0.565997 0.0122121 0.303318 -0.585688 -0.0906752 0.308861 -0.572383 
-0.0403781 0.333066 -0.598826 0.15463 0.269287 -0.55466 0.213108 0.260731 -0.532723 
-0.0361538 0.283863 -0.554614 -0.152196 0.322444 -0.565807 -0.644261 -0.546833 -0.536276 
0.271413 0.26262 -0.517617 -0.251557 0.334483 -0.525346 0.344117 0.279031 -0.49133 
-0.642196 -0.497613 -0.485957 0.318274 0.232494 -0.463649 0.374689 0.226214 -0.428032 
0.417227 0.219304 -0.38445 0.468141 0.235069 -0.354103 -0.641998 -0.332303 -0.373381 
-0.650185 -0.200183 -0.286513 0.47885 0.178099 -0.23005 0.531431 0.206988 -0.230874 
-0.633736 -0.15951 -0.225537 0.546093 0.186403 -0.169921 0.592815 0.197747 -0.0615575 
-0.574554 -0.115476 -0.0583129 -0.599949 -0.0731636 -0.0168593 0.57565 0.167277 0.00990068 
0.561383 0.150712 0.0704919 -0.594706 -0.0521296 0.0648066 0.584238 0.174575 0.131299 
-0.582339 -0.0356538 0.15485 0.543338 0.172388 0.248206 -0.54616 -0.0197928 0.249235 
0.510786 0.15283 0.310293 0.458997 0.125099 0.361487 -0.465389 -0.0278288 0.345217 
0.407281 0.0901842 0.377588 0.385939 0.105916 0.438511 -0.343448 -0.0186955 0.453837 
-0.397931 0.0222394 0.456296 0.337171 0.103835 0.479085 -0.242665 -0.0217976 0.477929 
-0.295112 0.00065831 0.498335 -0.214856 0.00162959 0.526598 0.210165 0.0835914 0.545332 
-0.158285 0.0122822 0.551317 -0.0992849 0.0216153 0.56506 0.154492 0.0705985 0.566237 
-0.0461469 0.0505628 0.583212 0.0151849 0.047832 0.584711 
VERTICES 54 53
OFFSETS vtktypeint64
0 1 2 3 4 5 6 7 8 
9 10 11 12 13 14 15 16 17 
18 19 20 21 22 23 24 25 26 
27 28 29 30 31 32 33 34 35 
36 37 38 39 40 41 42 43 44 
45 46 47 48 49 50 51 52 53 

CONNECTIVITY vtktypeint64
0 1 2 3 4 5 6 7 8 
9 10 11 12 13 14 15 16 17 
18 19 20 21 22 23 24 25 26 
27 28 29 30 31 32 33 34 35 
36 37 38 39 40 41 42 43 44 
45 46 47 48 49 50 51 52 
POINT_DATA 53
FIELD FieldData 4
id 1 53 int
27 20 76 28 34 79 43 62 16 
63 8 97 50 47 100 11 29 69 
18 17 36 12 5 96 52 10 42 
3 7 21 84 57 83 9 77 65 
39 73 15 75 81 92 56 44 25 
82 87 48 58 2 89 72 40 
type 1 53 int
1 1 1 1 1 1 1 1 1 
1 1 1 1 1 1 1 1 1 
1 1 1 1 1 1 1 1 1 
1 1 1 1 1 1 1 1 1 
1 1 1 1 1 1 1 1 1 
1 1 1 1 1 1 1 1 
v 3 53 double
-0.33012956942 -4.0315496534 -2.1757143002 -0.36763351087 -3.71344516 -2.1704175442 -0.23693407861 -3.5809336055 -2.2269389807 
2.0273157893 -0.29640087118 0.39772562458 1.9711402369 -0.019707080943 0.10599795122 1.986606715 -0.41812042269 -0.18013239162 
1.8930836429 -0.33944648024 -0.23071996528 1.8361590267 -0.14257165635 0.72330744737 1.8587094233 -0.37544926949 0.8169940877 
1.8015068093 -0.3130356778 -0.20143538504 1.9172274532 -0.10075631098 -0.25637747347 -0.23751994856 -3.0514085697 -2.0537422379 
1.93226133 -0.1624660609 0.66977396089 1.9236487958 -0.25365303702 -0.86773681605 1.9885563881 -0.039102659715 1.1579129085 
-0.19159917975 -3.0356729162 -2.1239892259 1.7985673605 -0.13408463329 0.81770407676 1.5730960673 -0.40121693633 1.2928262302 
1.3820851426 -0.23994142938 1.6594149682 1.409679724 -0.48457817396 1.7499062986 -0.24608876944 -2.4605751625 -2.2375015391 
-0.32181157016 -1.7852749926 -2.1401808633 0.77070596263 -0.34882714216 1.9510335378 0.80251189717 -0.40516028009 2.0359440178 
-0.27316339348 -1.4608830087 -2.1218966643 0.78601742602 -0.42215235158 2.0574963891 0.5221447096 -0.16830244056 2.2590795047 
-0.29298810345 -0.73654001388 -2.2233372142 -0.2160595025 -0.60601600962 -2.1343530173 9.0783144348e-06 -0.050042946579 1.9657349869 
-0.28144833462 -0.33958872464 1.9515664536 -0.53206838089 -0.15379963671 -2.2389857217 -0.33466858628 -0.54673592074 2.1817285175 
-0.19306887704 -0.077869026622 -2.0504412918 -0.80825038697 -0.44786665882 1.8990291547 -0.94653084882 -0.30099062348 -1.9253592136 
-1.3598396986 -0.19645523238 1.5772767285 -1.4271271626 -0.59444031131 1.6061460586 -1.4762370091 -0.41103049558 -1.7071811125 
-1.3054544534 -0.38408154858 1.5910682847 -1.8021439555 -0.34765654785 1.5618148414 -1.6862590538 -0.31719429476 -1.2707695954 
-1.4644723494 -0.11343183319 -1.1340411478 -1.7544735161 -0.48223132725 1.3391891913 -1.5878010975 -0.44061814965 -0.90248524385 
-1.7078506131 -0.17175019539 -1.2376996869 -1.644645011 -0.34558507918 -0.79083672946 -2.0722819055 -0.41624395132 0.8842150982 
-2.0346157701 -0.24989876969 -0.58112316311 -1.9955685512 -0.39741294931 -0.39706248308 -2.2265113959 -0.11111571185 0.22549257536 
-2.1213151355 -0.24768158123 -0.24885246884 -2.0104560407 -0.5773099999 0.27762716344 
radius 1 53 double
0.03 0.03 0.03 0.03 0.03 0.03 0.03 0.03 0.03 
0.03 0.03 0.03 0.03 0.03 0.03 0.03 0.03 0.03 
0.03 0.03 0.03 0.03 0.03 0.03 0.03 0.03 0.03 
0.03 0.03 0.03 0.03 0.03 0.03 0.03 0.03 0.03 
0.03 0.03 0.03 0.03 0.03 0.03 0.03 0.03 0.03 
0.03 0.03 0.03 0.03 0.03 0.03 0.03 0.03 
