# vtk DataFile Version 5.1
Generated by LIGGGHTS
ASCII
DATASET POLYDATA
POINTS 98 float
0.0159931 0.295544 -0.579788 0.0839825 0.282234 -0.568861 0.0168575 0.791802 -0.574136 
-0.0780141 0.816179 -0.575701 0.149487 0.273215 -0.559373 -0.171415 0.327135 -0.562436 
0.198237 0.761142 -0.531002 0.077898 0.779622 -0.564363 0.142004 0.768316 -0.551599 
-0.136718 0.8199 -0.563683 -0.190221 0.849226 -0.561752 -0.689741 -0.427249 -0.544461 
0.276004 0.275445 -0.525635 -0.235791 0.341736 -0.533219 0.253392 0.751307 -0.509171 
-0.240368 0.835731 -0.527215 0.304307 0.743321 -0.477513 -0.295495 0.85256 -0.509348 
0.348238 0.236532 -0.450866 -0.332505 0.353814 -0.481536 0.355872 0.738231 -0.444029 
-0.672877 -0.341688 -0.464535 0.44082 0.2713 -0.413671 -0.302048 0.825591 -0.456035 
-0.416522 0.364591 -0.416648 0.412602 0.721948 -0.384122 -0.407464 0.865127 -0.419192 
-0.629516 -0.295037 -0.389108 0.491749 0.751579 -0.344818 0.491491 0.225584 -0.320285 
-0.440431 0.355755 -0.346453 0.450562 0.709436 -0.333512 -0.408838 0.844989 -0.361299 
-0.461413 0.876148 -0.351917 -0.515156 0.400303 -0.298016 0.548806 0.214082 -0.21453 
-0.515596 0.890344 -0.277825 -0.556536 0.436331 -0.220287 -0.526967 0.890045 -0.213548 
0.547709 0.683683 -0.137885 -0.486369 0.868141 -0.175181 -0.566625 0.914185 -0.16605 
0.573296 0.195691 -0.113988 0.587755 0.721619 -0.110016 -0.530818 0.881624 -0.130603 
-0.581564 0.923847 -0.10642 -0.619049 -0.070979 -0.0791941 0.569464 0.172182 -0.050951 
-0.59076 0.446811 -0.0774807 -0.547168 0.897332 -0.0642445 0.553428 0.146527 0.0133372 
0.596163 0.188729 0.0243943 0.596791 0.692974 0.0124187 -0.548974 0.902416 0.00106749 
-0.591665 0.940984 0.0183655 -0.582442 -0.0501963 0.106531 -0.544958 0.924387 0.106401 
0.567425 0.166963 0.181232 -0.553319 -0.0582794 0.172194 -0.541278 0.436822 0.173291 
0.555017 0.670932 0.207193 -0.524538 0.928272 0.168278 -0.57198 0.960661 0.150921 
0.535571 0.145379 0.238139 0.514616 0.636132 0.269045 -0.544396 0.96734 0.215468 
-0.523086 -0.0381691 0.254698 -0.547713 0.489069 0.241543 -0.503746 0.957902 0.260512 
0.487398 0.138336 0.331216 -0.507174 0.465821 0.279976 0.485739 0.631453 0.323069 
0.423373 0.599643 0.354815 -0.453972 0.963216 0.330912 0.459757 0.642336 0.37611 
-0.420178 -0.02777 0.388007 0.4194 0.123945 0.420664 -0.404828 0.465912 0.387983 
-0.440142 0.510186 0.409375 0.378177 0.601938 0.430474 -0.393011 0.00880415 0.448557 
0.331488 0.0985131 0.478386 0.342937 0.61364 0.480107 -0.325451 0.510906 0.483598 
0.283612 0.590226 0.509996 -0.306221 0.0100171 0.49923 0.150714 0.551494 0.532333 
-0.234313 0.026604 0.538735 0.202725 0.0830215 0.548315 -0.161339 0.513207 0.544733 
-0.278063 0.53327 0.52939 -0.219041 0.532303 0.545174 0.201791 0.579754 0.546402 
-0.0223069 0.0521785 0.585194 -0.0804477 0.530268 0.567493 0.00105239 0.543659 0.577695 
0.0521417 0.573666 0.58868 0.110957 0.573632 0.573722 
VERTICES 99 98
OFFSETS vtktypeint64
0 1 2 3 4 5 6 7 8 
9 10 11 12 13 14 15 16 17 
18 19 20 21 22 23 24 25 26 
27 28 29 30 31 32 33 34 35 
36 37 38 39 40 41 42 43 44 
45 46 47 48 49 50 51 52 53 
54 55 56 57 58 59 60 61 62 
63 64 65 66 67 68 69 70 71 
72 73 74 75 76 77 78 79 80 
81 82 83 84 85 86 87 88 89 
90 91 92 93 94 95 96 97 98 

CONNECTIVITY vtktypeint64
0 1 2 3 4 5 6 7 8 
9 10 11 12 13 14 15 16 17 
18 19 20 21 22 23 24 25 26 
27 28 29 30 31 32 33 34 35 
36 37 38 39 40 41 42 43 44 
45 46 47 48 49 50 51 52 53 
54 55 56 57 58 59 60 61 62 
63 64 65 66 67 68 69 70 71 
72 73 74 75 76 77 78 79 80 
81 82 83 84 85 86 87 88 89 
90 91 92 93 94 95 96 97 
POINT_DATA 98
FIELD FieldData 4
id 1 98 int
85 54 73 39 59 60 44 75 81 
77 83 86 6 4 48 84 89 21 
53 67 40 74 70 42 46 72 96 
66 2 24 45 58 10 17 32 68 
5 13 18 87 69 29 14 25 100 
16 98 30 93 28 95 35 82 50 
62 22 43 19 41 26 56 63 34 
1 92 79 90 31 8 64 23 15 
9 47 65 49 80 55 33 57 61 
78 3 91 7 51 12 37 38 20 
99 27 52 88 76 97 11 36 
type 1 98 int
1 1 1 1 1 1 1 1 1 
1 1 1 1 1 1 1 1 1 
1 1 1 1 1 1 1 1 1 
1 1 1 1 1 1 1 1 1 
1 1 1 1 1 1 1 1 1 
1 1 1 1 1 1 1 1 1 
1 1 1 1 1 1 1 1 1 
1 1 1 1 1 1 1 1 1 
1 1 1 1 1 1 1 1 1 
1 1 1 1 1 1 1 1 1 
1 1 1 1 1 1 1 1 
v 3 98 double
2.2258650506 -0.078818511288 0.20380545981 2.3046202266 -0.48114462983 0.29237293792 1.816055989 -0.14106118629 0.12727521738 
1.8324163212 -0.39171787448 -0.19633233948 2.0643918217 -0.10965178336 0.82917813085 2.0637188951 -0.63053306314 -0.87563379611 
1.7769380735 -0.4336774941 0.7520427779 1.8266676569 -0.34919936302 0.33738336846 1.9129022922 -0.19134261443 0.53524285608 
1.8238838916 -0.37578702935 -0.18173131084 1.7728175388 -0.21736958066 -0.76519870534 -0.34761733349 -2.7429506862 -2.2642655265 
2.1114939654 -0.40573123634 0.9195828126 2.1299517387 -0.32729674873 -0.83210065761 1.7657078532 -0.4170241013 0.81675934147 
1.6844062907 -0.039553979862 -0.84279381199 1.6224907319 -0.28047901474 1.1529150285 1.752780448 -0.081161386755 -0.84964032493 
1.9061666004 -0.41672605141 1.3740950498 1.7860673049 -0.55324758636 -1.3421220534 1.554516437 -0.38835199197 1.2609828841 
-0.35754166992 -2.4809864146 -2.4304398492 1.1906830818 -0.18775934625 1.7646002275 1.490277654 -0.37248906522 -0.95678525841 
1.9725684675 -0.12611871007 -1.3022707677 1.3278701229 -0.18910178058 1.5430727563 1.469029691 -0.16106725295 -1.441546129 
-0.25780260374 -2.1051337108 -2.3129288917 1.1335704361 -0.31461607411 1.4846353246 1.3974752361 -0.34021592081 1.7846060256 
1.1500155134 -0.19486928531 -1.8440632691 1.2040310973 -0.353915127 1.6114886701 1.1404181261 -0.25425838735 -1.6542619819 
1.0964699068 -0.28197385701 -1.4614391757 0.93517624333 -0.80587373476 -1.965524901 0.98853631196 -0.20910080455 2.0434106983 
0.8635994359 -0.40390158106 -1.80546544 0.8171588596 -0.14992825154 -2.0033446337 0.74966170136 -0.31961576988 -1.7907664701 
0.31047587305 -0.22873870775 2.0516333549 0.65709906578 -0.28666495633 -1.6740090236 0.6149769241 -0.20730740487 -1.9081682138 
0.57840060172 -0.11988596201 2.2561521627 0.28766556877 -0.22060278976 2.1377576682 0.60317258987 -0.10708246224 -1.7797861399 
0.26377128257 -0.32225762309 -1.9141620867 -0.29807269166 -0.82722507241 -2.1788426723 0.42049144061 -0.2426617497 2.2326276068 
0.42033466615 -0.46086352484 -2.1779583957 0.21924834784 -0.28083604351 -1.8458684034 -0.25589474846 -0.32492699636 2.1327179196 
-0.29700640872 -0.18877613972 2.2322267217 -0.41374022311 -0.2349986102 2.0283307342 0.079522373939 -0.15473466619 -1.9387735072 
-0.16477393381 -0.40109926114 -1.9416351656 -0.60685633358 -0.13667885362 -2.3056295041 -0.25959831395 -0.25894604633 -1.7784596139 
-0.68952352698 0.12940034737 2.0605668703 -0.92641494202 -0.32363095769 -2.116370597 -0.60035512364 -0.5745324669 -2.0346578038 
-0.78000985336 -0.33533274663 1.8049047155 -0.44714138569 -0.3219250953 -1.6240587339 -0.26826148846 -0.23121366853 -1.9339988191 
-0.85996717033 -0.51314669665 2.1681998977 -1.0220027806 -0.53189542553 1.799957535 -0.55165416006 -0.39388931647 -1.6390630203 
-1.0466236055 -0.15763122599 -1.9825096095 -0.93917842285 -0.25542548973 -2.0750700392 -0.94246944773 -0.17407277178 -1.7806617279 
-1.4449953499 -0.34930029792 1.7569956436 -0.96247550261 -0.1167953294 -1.9409802273 -1.1902020956 -0.41077489499 1.5933218414 
-1.1977659036 -0.37726904643 1.3680800173 -1.1316266759 -0.34930619053 -1.537789169 -1.2525036204 -0.42720990404 1.5617748164 
-1.3899245914 -0.21579472233 -1.6971537858 -1.4117964917 -0.80499599424 1.6660480741 -1.2753357734 -0.29293527046 -1.5234422723 
-1.3798536206 -0.16352852699 -1.6757857793 -1.4939049828 -0.29789164531 1.1995875595 -1.8598262583 -0.28924078582 -1.3955315125 
-1.8783859074 -0.58945300064 1.298956909 -1.6477418414 -0.46526520871 1.139313735 -1.7368040161 -0.28504394209 -1.2516531814 
-1.8205178392 -0.094462654188 0.86557816553 -1.9274329553 -0.11747707976 -1.3593516195 -1.7938347988 -0.18701138827 0.42307840362 
-2.2288315332 -0.36502088122 -0.8070522765 -2.1421608584 -0.39603812982 0.92889244528 -1.9981435659 -0.26429254919 -0.50939034147 
-1.7402075711 -0.57135117632 -0.92489858389 -2.0045783012 -0.36566901564 -0.84135529851 -1.7756355568 -0.30960403896 0.73722538299 
-2.3156024979 -0.15631504404 -0.29321686199 -2.0675116481 -0.27083740457 -0.2299253775 -1.988368764 -0.1313104917 -0.23227284734 
-1.9240213968 -0.29663429071 0.28180573105 -2.0358610025 -0.33582165822 0.29558724326 
radius 1 98 double
0.03 0.03 0.03 0.03 0.03 0.03 0.03 0.03 0.03 
0.03 0.03 0.03 0.03 0.03 0.03 0.03 0.03 0.03 
0.03 0.03 0.03 0.03 0.03 0.03 0.03 0.03 0.03 
0.03 0.03 0.03 0.03 0.03 0.03 0.03 0.03 0.03 
0.03 0.03 0.03 0.03 0.03 0.03 0.03 0.03 0.03 
0.03 0.03 0.03 0.03 0.03 0.03 0.03 0.03 0.03 
0.03 0.03 0.03 0.03 0.03 0.03 0.03 0.03 0.03 
0.03 0.03 0.03 0.03 0.03 0.03 0.03 0.03 0.03 
0.03 0.03 0.03 0.03 0.03 0.03 0.03 0.03 0.03 
0.03 0.03 0.03 0.03 0.03 0.03 0.03 0.03 0.03 
0.03 0.03 0.03 0.03 0.03 0.03 0.03 0.03 
