# vtk DataFile Version 5.1
Generated by LIGGGHTS
ASCII
DATASET POLYDATA
POINTS 54 float
0.125718 0.074822 0.573738 -0.655672 -0.866721 -0.673009 -0.705936 -0.570578 -0.632617 
-0.00544067 0.289882 -0.576784 0.0577795 0.289489 -0.574403 -0.076276 0.310787 -0.57564 
0.111318 0.266814 -0.553994 -0.138613 0.311715 -0.561747 0.174463 0.285566 -0.560193 
-0.189268 0.34604 -0.56446 -0.703306 -0.474408 -0.558752 0.169238 0.246847 -0.514696 
0.235286 0.252915 -0.520721 -0.187122 0.304438 -0.518547 -0.242592 0.336866 -0.531616 
0.287667 0.24121 -0.492379 0.343291 0.265298 -0.479686 -0.297484 0.340673 -0.505318 
-0.653223 -0.435675 -0.467087 -0.393733 0.361234 -0.433915 0.401311 0.208493 -0.374387 
0.450116 0.242925 -0.381303 -0.625259 -0.334113 -0.371976 0.470656 0.213646 -0.326644 
-0.626868 -0.286151 -0.316038 0.532441 0.211751 -0.235572 -0.622311 -0.166849 -0.194381 
0.548319 0.180296 -0.146397 0.562816 0.17656 -0.0881327 -0.62444 -0.088753 -0.115299 
0.596961 0.198852 -0.043673 -0.611883 -0.0740309 -0.0557855 0.592456 0.190189 0.0913168 
-0.547343 -0.0816094 0.118189 0.579841 0.179163 0.159117 -0.577363 -0.0423712 0.152723 
0.550169 0.16567 0.218468 0.500397 0.115661 0.245073 -0.532889 -0.0393159 0.237002 
0.511066 0.13771 0.299835 -0.506422 -0.0187413 0.314894 0.465705 0.124519 0.357368 
-0.45138 0.000821107 0.390033 0.365726 0.102191 0.456217 -0.335654 -0.00457862 0.468305 
0.318718 0.0993112 0.496888 -0.102601 0.00372014 0.532325 -0.26321 0.0223989 0.529091 
-0.200839 0.00845288 0.536749 0.183034 0.0694606 0.554179 -0.147211 0.0267779 0.565444 
-0.0741705 0.0357263 0.574791 0.00154345 0.0424183 0.581298 0.0608163 0.0509627 0.575782 

VERTICES 55 54
OFFSETS vtktypeint64
0 1 2 3 4 5 6 7 8 
9 10 11 12 13 14 15 16 17 
18 19 20 21 22 23 24 25 26 
27 28 29 30 31 32 33 34 35 
36 37 38 39 40 41 42 43 44 
45 46 47 48 49 50 51 52 53 
54 
CONNECTIVITY vtktypeint64
0 1 2 3 4 5 6 7 8 
9 10 11 12 13 14 15 16 17 
18 19 20 21 22 23 24 25 26 
27 28 29 30 31 32 33 34 35 
36 37 38 39 40 41 42 43 44 
45 46 47 48 49 50 51 52 53 

POINT_DATA 54
FIELD FieldData 4
id 1 54 int
72 99 27 62 16 28 50 34 100 
43 20 29 69 63 79 18 17 8 
76 47 5 96 97 10 11 42 36 
21 84 12 83 52 77 3 39 7 
73 75 57 81 9 44 65 48 15 
89 25 56 92 40 82 87 58 2 

type 1 54 int
1 1 1 1 1 1 1 1 1 
1 1 1 1 1 1 1 1 1 
1 1 1 1 1 1 1 1 1 
1 1 1 1 1 1 1 1 1 
1 1 1 1 1 1 1 1 1 
1 1 1 1 1 1 1 1 1 

v 3 54 double
-2.277686594 -0.20916509343 0.30107976298 -0.17870601761 -4.0515464137 -2.0574682256 -0.33012956942 -3.2467496534 -2.1757143002 
2.1327366265 -0.15808210794 0.019442374283 2.10197005 -0.3906508975 0.26497032119 1.9739281554 -0.47741756756 -0.26435212625 
2.0323417091 -0.21298548748 0.038844516279 1.859616804 -0.11060858704 -0.67542892403 2.1939991891 0.037073400688 0.68334816181 
1.6884014037 -0.16627862021 -0.77141975052 -0.36763351087 -2.92864516 -2.1704175442 1.892797774 -0.20574172169 0.50873599363 
2.0058254751 -0.49182408442 0.82662894474 1.8796084606 -0.34665896519 -0.74384553963 1.8898012979 -0.21617545888 -0.85267139445 
1.7497326128 -0.098705466775 1.17140804 1.7221776812 -0.42262673264 1.3149448422 1.792319758 0.0049577680553 -0.89839192839 
-0.23693407861 -2.7961336055 -2.2269389807 1.6566758766 -0.27086458185 -1.2943450535 1.1454041463 -0.3615454848 1.6604088224 
1.2409084627 -0.53040278563 1.6985110495 -0.23751994856 -2.2666085697 -2.0537422379 1.2697588562 -0.45610539437 1.7339644991 
-0.19159917975 -2.2508729162 -2.1239892259 1.0511560668 -0.28308148764 2.0489088937 -0.24608876944 -1.6757751625 -2.2375015391 
0.49121726921 -0.024098528099 2.0634056367 0.35904170575 -0.20291058448 2.0765569316 -0.32181157016 -1.0004749926 -2.1401808633 
0.29954660255 -0.28688296002 2.1411964708 -0.27316339348 -0.67608300871 -2.1218966643 -0.21710323487 -0.16823613627 2.0809353976 
-0.44104954985 -0.22320181364 -2.1691769855 -0.81517640356 0.011500483546 1.9198658178 -0.34068725539 -0.17297178852 -2.1122318046 
-0.9019565597 -0.36857727691 1.9378217286 -0.89051266807 -0.43042343182 1.7648784677 -1.0641418723 -0.24429471582 -2.0289516206 
-1.3999424772 -0.31316409575 1.8590453122 -1.3511728206 -0.36899945718 -1.7724746312 -1.2840652649 -0.25398169747 1.9240221203 
-1.3858694436 -0.22547916256 -1.6039249563 -1.721258307 -0.23851833624 1.58668447 -1.818241109 -0.31063746341 -1.2971435983 
-1.7938005101 -0.42294334081 1.3406734837 -1.7473539252 -0.40272351415 -0.45314706059 -1.8594084699 -0.066453495164 -0.5840717699 
-1.8877991387 -0.47277361755 -0.77977644161 -2.0556323172 -0.30529875223 0.89618318151 -1.8907743481 -0.11157730032 -0.72085224449 
-1.8679671956 -0.5382564099 -0.27224931296 -1.9075041981 -0.20098357093 -0.31397079061 -1.9308673427 -0.2853608744 0.24824063834 

radius 1 54 double
0.03 0.03 0.03 0.03 0.03 0.03 0.03 0.03 0.03 
0.03 0.03 0.03 0.03 0.03 0.03 0.03 0.03 0.03 
0.03 0.03 0.03 0.03 0.03 0.03 0.03 0.03 0.03 
0.03 0.03 0.03 0.03 0.03 0.03 0.03 0.03 0.03 
0.03 0.03 0.03 0.03 0.03 0.03 0.03 0.03 0.03 
0.03 0.03 0.03 0.03 0.03 0.03 0.03 0.03 0.03 

