# vtk DataFile Version 5.1
Generated by LIGGGHTS
ASCII
DATASET POLYDATA
POINTS 100 float
-0.00163921 0.307188 -0.588812 0.0990252 0.294918 -0.57495 0.205754 0.301044 -0.562339 
-0.035471 0.812088 -0.58317 -0.191784 0.327852 -0.552546 -0.130652 0.314666 -0.566557 
0.090197 0.776167 -0.559287 0.194027 0.793268 -0.557437 -0.126005 0.824615 -0.567946 
0.248136 0.753965 -0.512723 0.305486 0.24086 -0.481382 -0.292253 0.337516 -0.503191 
-0.230423 0.316043 -0.50802 0.209552 0.733432 -0.471618 0.298609 0.744788 -0.481612 
-0.298312 0.842407 -0.500647 -0.343618 0.347601 -0.468506 0.350133 0.735044 -0.444233 
0.403158 0.735005 -0.411064 -0.372629 0.856442 -0.443248 -0.432269 0.381626 -0.4099 
-0.418899 0.864475 -0.404214 0.500523 0.253588 -0.336815 -0.469767 0.385079 -0.357887 
0.446479 0.708089 -0.335777 0.497828 0.730467 -0.314128 -0.414791 0.843663 -0.343542 
0.500394 0.699272 -0.253705 -0.46438 0.865144 -0.307468 -0.533748 0.406779 -0.265207 
0.547062 0.737481 -0.239796 -0.497756 0.874133 -0.258384 -0.551063 0.917214 -0.218599 
0.583365 0.222204 -0.157154 0.54242 0.681107 -0.147519 -0.573635 0.920408 -0.153617 
-0.583336 0.421827 -0.114283 0.567967 0.686573 -0.0874868 0.597131 0.20875 -0.051925 
-0.568961 0.913964 -0.0941835 0.552328 0.654745 -0.0243878 -0.591417 0.433961 -0.0104961 
0.591613 0.190811 0.058662 0.549095 0.647533 0.0356579 0.589295 0.685286 0.0618887 
-0.590636 0.937554 -0.000985545 -0.550967 0.91474 0.0529851 -0.576417 -0.0713581 0.0611189 
-0.592912 0.449152 0.0584381 -0.58206 0.456826 0.118439 0.558053 0.658553 0.185872 
-0.582483 0.963545 0.126287 0.531168 0.135999 0.214325 0.508957 0.621587 0.200996 
-0.564549 0.967783 0.183971 0.528742 0.148224 0.273985 -0.519912 0.453835 0.237801 
0.529829 0.646063 0.255714 -0.513975 0.947265 0.225882 0.497365 0.15663 0.330321 
-0.492577 0.466211 0.304773 0.502217 0.642023 0.309055 -0.482883 0.947976 0.277281 
0.470486 1.13261 0.345419 -0.486481 -0.00153628 0.349909 0.449052 0.119264 0.375749 
-0.463711 0.988865 0.354688 0.343017 0.578236 0.417922 -0.419786 0.991137 0.398463 
0.377095 1.09642 0.405419 -0.365426 0.493099 0.445754 0.329137 0.59889 0.482475 
-0.272232 0.981042 0.452517 -0.331623 0.98928 0.455732 -0.384921 1.01774 0.453586 
0.289205 1.07708 0.469274 0.341108 1.10703 0.472254 0.170879 1.05212 0.508506 
0.22726 1.06361 0.488826 0.278904 0.102182 0.522245 -0.293849 0.512116 0.504086 
-0.265872 1.00696 0.507657 -0.136394 1.0044 0.514117 -0.0696725 1.01725 0.531088 
0.0590237 1.03827 0.537117 -0.12959 0.0225452 0.565712 -0.212319 0.519905 0.535729 
0.181274 0.586699 0.557126 -0.196111 1.01473 0.532876 -0.118869 1.0329 0.564016 
-3.72067e-05 1.03368 0.551357 0.105413 1.06398 0.565166 0.188649 1.08712 0.553884 
-0.0012343 0.0465083 0.583703 0.0428892 0.0887151 0.599165 -0.108161 0.538953 0.572591 
-0.0489251 0.548805 0.57677 0.0563712 0.566873 0.582339 -0.0519665 1.05086 0.577916 
0.0323912 1.06954 0.587074 
VERTICES 101 100
OFFSETS vtktypeint64
0 1 2 3 4 5 6 7 8 
9 10 11 12 13 14 15 16 17 
18 19 20 21 22 23 24 25 26 
27 28 29 30 31 32 33 34 35 
36 37 38 39 40 41 42 43 44 
45 46 47 48 49 50 51 52 53 
54 55 56 57 58 59 60 61 62 
63 64 65 66 67 68 69 70 71 
72 73 74 75 76 77 78 79 80 
81 82 83 84 85 86 87 88 89 
90 91 92 93 94 95 96 97 98 
99 100 
CONNECTIVITY vtktypeint64
0 1 2 3 4 5 6 7 8 
9 10 11 12 13 14 15 16 17 
18 19 20 21 22 23 24 25 26 
27 28 29 30 31 32 33 34 35 
36 37 38 39 40 41 42 43 44 
45 46 47 48 49 50 51 52 53 
54 55 56 57 58 59 60 61 62 
63 64 65 66 67 68 69 70 71 
72 73 74 75 76 77 78 79 80 
81 82 83 84 85 86 87 88 89 
90 91 92 93 94 95 96 97 98 
99 
POINT_DATA 100
FIELD FieldData 4
id 1 100 int
64 80 78 92 19 1 15 65 56 
57 38 95 35 9 3 82 30 7 
52 25 14 87 88 68 12 36 2 
11 58 24 97 72 40 37 76 89 
70 20 51 48 27 53 61 91 99 
44 81 94 6 59 33 75 49 55 
73 90 54 23 39 41 85 31 77 
47 71 22 83 26 84 8 60 93 
96 42 21 79 63 43 34 98 4 
17 5 69 28 86 67 13 10 18 
100 50 62 74 66 46 45 32 29 
16 
type 1 100 int
1 1 1 1 1 1 1 1 1 
1 1 1 1 1 1 1 1 1 
1 1 1 1 1 1 1 1 1 
1 1 1 1 1 1 1 1 1 
1 1 1 1 1 1 1 1 1 
1 1 1 1 1 1 1 1 1 
1 1 1 1 1 1 1 1 1 
1 1 1 1 1 1 1 1 1 
1 1 1 1 1 1 1 1 1 
1 1 1 1 1 1 1 1 1 
1 1 1 1 1 1 1 1 1 
1 
v 3 100 double
2.3289604786 0.063009016242 0.24243131896 2.2459725408 -0.49598982473 0.32683867194 2.1578440996 -0.2380648183 0.7948142499 
2.1647348322 -0.38995866839 -0.23610763575 2.210962193 -0.30884904341 -0.91410057162 2.1938616357 -0.1529443046 -0.43732597283 
2.2643683277 -0.44506761959 0.49360948655 1.8118698684 -0.25462958073 0.64602107651 2.1678081927 -0.23475276228 -0.28857291443 
1.7259223339 -0.32491416878 0.73336741852 1.9945939652 -0.093771396858 1.263052956 1.8776732183 -0.15887932952 -0.94035664403 
1.8657124816 -0.10121275067 -1.0293025479 1.6428518056 -0.28449851055 0.67496551987 1.526886685 -0.21260371066 1.0879648741 
1.972312932 -0.11497164281 -1.1190708666 1.5768108448 -0.31257414016 -1.2305521981 1.4622027746 -0.53562854851 1.3087459936 
1.2781318238 -0.11143834593 1.5635264851 1.6882992463 -0.35859912916 -1.1247051713 1.2927518199 -0.71565738534 -1.6282562321 
1.5261589451 -0.15722384958 -1.3137528248 1.3860761288 -0.34260507111 1.7983711412 1.2106288763 -0.27233450184 -1.6169944308 
1.1099859325 -0.30973793111 1.46537462 1.1116495014 -0.31598592439 1.4743881035 1.2094371976 -0.3932848838 -1.3276562692 
0.70212391469 -0.26033259608 1.6120937202 0.93081835425 -0.16127738225 -1.602221117 0.78006766191 -0.32718769651 -1.8867169541 
0.90606016471 -0.42943330186 2.1179407697 0.67347309966 -0.26859528001 -1.743024072 0.64682279179 -0.11989714198 -1.7471982517 
0.20904407581 -0.0095455151735 2.2137277196 0.39744789736 -0.098663990029 1.9356453512 0.71372772792 0.052031596681 -1.8175774249 
0.28737053721 -0.48372468042 -2.1893947096 0.42125724488 -0.19347558731 1.9640347876 0.34519995941 -0.14351927484 2.21850093 
0.081724505345 -0.16439295208 -2.0117636812 0.15380132303 -0.40446975774 1.9282776494 0.17292398186 -0.1824598228 -2.2497873644 
-0.30126265552 -0.18814288012 2.1299382567 -0.30158958082 -0.4713509951 1.9549444165 -0.2489622204 -0.40973569385 1.8396781648 
0.11843263075 -0.11669541499 -2.1818156506 -0.35556425049 -0.23727575066 -1.968587338 -0.50047439318 -0.23354745962 -2.3341196834 
-0.25755347015 -0.46639040378 -2.0886091647 -0.54450100709 -0.12792778588 -2.0187346791 -0.64189698192 -0.22622640402 2.1965164407 
-0.29329493679 -0.09034037027 -1.9704992618 -0.6317923818 -0.12820152014 2.0205985537 -0.81079817521 -0.37321624286 1.7507533002 
-0.63755103151 -0.44795493906 -1.880375748 -0.860490194 -0.37721662736 2.0624742421 -1.0927360389 -0.24498359628 -2.0518307462 
-0.92983066754 -0.38546236668 1.8702066726 -0.68592420333 -0.31000282053 -1.7050741691 -1.4383757451 -0.23021668801 1.7856591827 
-1.5088179898 -0.31440923466 -1.8566163345 -1.3253780621 -0.29635289367 1.6593129273 -0.80026298213 -0.10614713682 -1.5674576042 
-1.1366621576 -0.36382233493 1.4806414579 -1.4747290868 -0.37568973088 -1.7590003829 -1.357437514 -0.55085682284 1.8632963017 
-1.2360536861 -0.083460923817 -1.2942007238 -1.5810731598 -0.24148903585 1.4093337221 -1.1443582066 -0.17286105671 -1.3193007344 
-1.4025636184 -0.27301391702 1.3181729998 -1.8282607133 -0.48930623464 -1.3047239506 -1.9436773982 -0.43791162877 1.4705799893 
-1.4749163426 -0.15994482956 -0.75163469288 -1.5140550747 -0.28004167581 -1.133694176 -1.5283450325 -0.26437842728 -1.1259741615 
-1.5218929096 -0.10809804038 1.1755896405 -1.4573121296 -0.26252542374 1.1466988747 -1.6532163297 -0.30029336617 0.66042999832 
-1.5790008698 -0.18873075174 0.85023852748 -2.0605770611 -0.42314958576 0.6246603359 -1.9019620566 -0.047532491386 -1.3157639873 
-1.8197588648 -0.42605016045 -0.84131761925 -1.6650115248 -0.2145699298 -0.43191088403 -1.7327267825 -0.25951677568 -0.17764080984 
-1.7092053453 -0.241348046 0.30512453182 -2.3523329573 -0.56400382135 -0.32114036118 -2.1316510973 -0.33588220721 -0.78069425975 
-2.127093737 -0.61337881116 0.80334458653 -1.9040997972 -0.2930850542 -0.76578357886 -1.81058187 -0.36150057367 -0.28607980171 
-1.7118997948 -0.15803833842 0.011624571531 -1.6329412687 -0.33844201436 0.26800623135 -1.815792377 -0.32798095612 0.74543244926 
-2.3827751393 -0.019068021828 -0.24025403805 -2.5130355122 -0.59380035776 0.13871048941 -2.190980407 -0.265228627 -0.24691646113 
-2.18049684 -0.30994679587 -0.36749556379 -2.2251247447 -0.50978554821 0.32265555695 -1.8191673313 -0.24817606423 -0.20437683206 
-1.7969845845 -0.30797817648 0.22665150943 
radius 1 100 double
0.03 0.03 0.03 0.03 0.03 0.03 0.03 0.03 0.03 
0.03 0.03 0.03 0.03 0.03 0.03 0.03 0.03 0.03 
0.03 0.03 0.03 0.03 0.03 0.03 0.03 0.03 0.03 
0.03 0.03 0.03 0.03 0.03 0.03 0.03 0.03 0.03 
0.03 0.03 0.03 0.03 0.03 0.03 0.03 0.03 0.03 
0.03 0.03 0.03 0.03 0.03 0.03 0.03 0.03 0.03 
0.03 0.03 0.03 0.03 0.03 0.03 0.03 0.03 0.03 
0.03 0.03 0.03 0.03 0.03 0.03 0.03 0.03 0.03 
0.03 0.03 0.03 0.03 0.03 0.03 0.03 0.03 0.03 
0.03 0.03 0.03 0.03 0.03 0.03 0.03 0.03 0.03 
0.03 0.03 0.03 0.03 0.03 0.03 0.03 0.03 0.03 
0.03 
