# vtk DataFile Version 5.1
Generated by LIGGGHTS
ASCII
DATASET POLYDATA
POINTS 100 float
-0.0867035 0.822172 -0.575874 -0.0261002 0.830274 -0.5975 0.0996003 0.807319 -0.57977 
0.161759 0.820837 -0.586911 -0.0449189 1.30611 -0.572536 0.0147911 1.30566 -0.578517 
-0.24349 0.862069 -0.540325 0.0864072 1.28246 -0.561628 0.144586 1.27257 -0.550477 
0.200682 1.29379 -0.553416 0.183727 1.25467 -0.508656 0.0541736 1.26428 -0.514391 
0.248767 1.26818 -0.519017 -0.161596 1.31254 -0.53387 -0.102735 1.29917 -0.533738 
-0.21855 1.3273 -0.52156 0.335804 0.769747 -0.483005 0.309238 1.26585 -0.490979 
-0.288753 1.34505 -0.503314 -0.356929 0.870665 -0.466254 0.345062 1.2418 -0.447446 
-0.208479 1.30609 -0.466342 -0.29405 1.32402 -0.447 -0.421195 0.876452 -0.415614 
0.401162 1.25836 -0.432821 -0.382964 1.35572 -0.416074 0.381195 1.22021 -0.390891 
0.437286 1.23842 -0.375615 -0.469676 0.886102 -0.347108 0.460426 1.21623 -0.324596 
0.493957 1.26284 -0.343152 -0.515672 1.39557 -0.284131 0.513529 1.21755 -0.260469 
-0.529773 1.39844 -0.225931 -0.55321 0.910414 -0.194469 0.545215 1.19328 -0.162627 
-0.538315 1.39741 -0.166549 0.583443 0.712261 -0.10804 -0.497618 1.38043 -0.125856 
-0.550725 1.40353 -0.108126 -0.581056 0.9278 -0.0825722 0.558035 1.17593 -0.06085 
-0.558916 1.41449 -0.0322657 0.550199 1.15658 0.0116605 -0.522043 1.40384 0.0144918 
0.589522 1.18729 0.0450079 -0.574313 1.43188 0.023536 0.587868 0.681007 0.0700755 
-0.591796 0.959345 0.069172 -0.536567 1.41642 0.0726977 -0.558683 0.940324 0.1199 
-0.502401 1.42071 0.123707 -0.550909 1.44648 0.147977 -0.527906 0.930119 0.170712 
0.518333 1.13342 0.192197 -0.505261 1.43393 0.185572 -0.45069 1.44052 0.246097 
-0.510068 1.4575 0.240551 -0.511452 0.969781 0.270669 0.517876 1.14441 0.279956 
-0.472532 1.45931 0.299613 -0.410802 1.44761 0.292465 -0.433714 1.46582 0.345018 
-0.374218 1.45824 0.343415 -0.316102 1.46974 0.352909 -0.47054 1.00951 0.371578 
0.399084 1.09174 0.360867 -0.416118 0.997141 0.409855 -0.352918 1.47332 0.40015 
-0.29138 1.47435 0.413608 0.271175 1.57554 0.387157 0.40601 1.11693 0.419982 
-0.387921 1.50652 0.435819 0.188519 1.55994 0.433301 0.285667 1.57251 0.445301 
-0.339339 1.00899 0.470159 -0.312766 1.49521 0.465644 -0.24842 1.4898 0.466242 
0.23308 1.56491 0.47317 0.294773 1.09432 0.50208 -0.18399 1.49576 0.479258 
0.148986 1.54807 0.490167 -0.285247 1.03195 0.522812 0.23992 1.09848 0.534011 
-0.227997 1.51319 0.517578 -0.108794 1.51092 0.513216 -0.0490744 1.51739 0.513298 
0.0243157 1.53631 0.537733 0.0932632 1.54008 0.511206 0.19583 1.57104 0.519806 
-0.117151 1.02639 0.559254 0.0959401 1.06723 0.568408 0.167588 1.07479 0.556691 
-0.172516 1.5221 0.539773 -0.105838 1.54066 0.565246 0.0754998 1.55971 0.565054 
0.137314 1.56495 0.546743 0.0366412 1.04833 0.569369 -0.0235119 1.07906 0.597199 
-0.0322227 1.54546 0.56937 
VERTICES 101 100
OFFSETS vtktypeint64
0 1 2 3 4 5 6 7 8 
9 10 11 12 13 14 15 16 17 
18 19 20 21 22 23 24 25 26 
27 28 29 30 31 32 33 34 35 
36 37 38 39 40 41 42 43 44 
45 46 47 48 49 50 51 52 53 
54 55 56 57 58 59 60 61 62 
63 64 65 66 67 68 69 70 71 
72 73 74 75 76 77 78 79 80 
81 82 83 84 85 86 87 88 89 
90 91 92 93 94 95 96 97 98 
99 100 
CONNECTIVITY vtktypeint64
0 1 2 3 4 5 6 7 8 
9 10 11 12 13 14 15 16 17 
18 19 20 21 22 23 24 25 26 
27 28 29 30 31 32 33 34 35 
36 37 38 39 40 41 42 43 44 
45 46 47 48 49 50 51 52 53 
54 55 56 57 58 59 60 61 62 
63 64 65 66 67 68 69 70 71 
72 73 74 75 76 77 78 79 80 
81 82 83 84 85 86 87 88 89 
90 91 92 93 94 95 96 97 98 
99 
POINT_DATA 100
FIELD FieldData 4
id 1 100 int
22 98 66 74 97 36 41 20 27 
91 33 76 99 11 12 7 86 23 
9 90 31 52 3 49 55 57 93 
26 61 13 32 65 45 15 51 46 
56 71 92 82 37 67 25 4 58 
60 2 94 88 87 38 40 72 78 
85 89 48 44 80 54 75 81 39 
77 84 64 59 1 83 96 8 6 
73 34 47 19 21 42 63 53 17 
62 95 70 10 5 69 16 43 79 
30 68 24 18 29 28 50 35 14 
100 
type 1 100 int
1 1 1 1 1 1 1 1 1 
1 1 1 1 1 1 1 1 1 
1 1 1 1 1 1 1 1 1 
1 1 1 1 1 1 1 1 1 
1 1 1 1 1 1 1 1 1 
1 1 1 1 1 1 1 1 1 
1 1 1 1 1 1 1 1 1 
1 1 1 1 1 1 1 1 1 
1 1 1 1 1 1 1 1 1 
1 1 1 1 1 1 1 1 1 
1 1 1 1 1 1 1 1 1 
1 
v 3 100 double
2.0686463321 -0.35967247569 -0.32260094586 2.1311921854 -0.27122680636 -0.33106982431 2.3645901493 -0.31962537285 0.21576643764 
1.7449180877 -0.15912336434 0.86799166775 1.7069432166 -0.31526153876 -0.2001321252 1.7554925711 -0.12962213437 0.12537679263 
2.0271464249 -0.11820155623 -0.98820436361 1.5633276009 -0.24165420773 0.2004803245 1.5311345852 -0.14291336062 0.51180897034 
1.5328938321 -0.14050268644 0.53085566245 1.8789605475 -0.075062356892 0.15157644588 1.5538315234 -0.24871741651 0.20182465302 
1.467402128 -0.25448013027 0.60560423952 1.5810880529 -0.25666278109 -0.70240718948 1.6255166746 -0.10840417868 -0.56266654085 
1.5710328444 -0.23199765105 -0.75222974311 1.9879689746 -0.13746546721 1.2639669804 1.3755346343 -0.20748020039 0.93166992395 
1.6174248662 -0.077777142028 -0.79684220848 1.7468141954 -0.38077314182 -1.3599422734 1.3811786337 -0.18711507562 0.96409674255 
1.5147962055 -0.27883010353 -0.75995456934 1.2268236766 -0.25286657084 -0.93390133557 1.8572118187 -0.058698537194 -1.2812927878 
1.4142265017 -0.21587343813 1.0114711037 1.2357272969 -0.074192784047 -1.4011618062 1.2323050782 -0.17047675746 1.0031177415 
1.117504331 -0.086724699161 1.226224224 1.3549158932 -0.38142107424 -1.7231267282 0.97146310032 -0.28308855376 1.2877784832 
1.0930893872 -0.24030747145 1.3915415563 0.74949668022 -0.0033306475542 -1.1137299894 0.87175030771 -0.11790950142 1.4654873067 
0.44236403447 -0.14005073329 -1.2339204165 0.96141766802 -0.44476351916 -1.8914699006 0.71470191032 -0.37345728398 1.8648901019 
0.46890052332 -0.1740493805 -1.3357093671 0.17256558098 -0.37359005221 2.0812246816 0.35471994733 -0.19343330087 -1.2309792696 
0.26498676358 -0.28912429034 -1.3580426032 0.36823240031 -0.58864891384 -2.0341005855 0.31201939875 -0.28048808149 1.9812576322 
0.07745092402 -0.13825798909 -1.2967972801 -0.21112381934 -0.25997167852 1.9308894192 -0.17894270676 -0.17800517789 -1.432971248 
-0.17184676571 -0.26248963015 1.9424226046 -0.18641889803 -0.20729520261 -1.3284186952 -0.29432779746 -0.41401272338 2.2952342016 
-0.22277201484 -0.48232986654 -2.0548198292 -0.1002957878 -0.2347881277 -1.3689979739 -0.31991583278 -0.34182303269 -1.876307994 
-0.41080288976 -0.12699690242 -1.0292271915 -0.44435346009 0.016374865336 -1.2692413814 -0.53804602712 -0.45554787408 -1.7351778672 
-0.69265865456 -0.29195291469 1.6758917043 -0.58584233922 -0.17557390372 -1.1049634828 -0.53773063383 -0.15345163541 -0.98135293033 
-0.5589412399 -0.12530018042 -1.1270686328 -0.87985241573 -0.23883344581 -1.8843672258 -0.87857394539 -0.39184088739 1.9630851577 
-0.65169227321 -0.29399271956 -1.0139013928 -0.53342717975 -0.21462947334 -0.95069724948 -0.67680567547 -0.26352598888 -0.99614286056 
-0.65601693665 -0.14822208501 -0.76510844427 -0.69523047804 -0.14122280493 -0.53143420521 -1.2462343949 -0.41353758159 -1.6476099411 
-1.2562005844 -0.39558210627 1.4135003781 -1.5737755928 0.013460139514 -1.6618100733 -0.83232694713 -0.16854956925 -0.63616247693 
-0.92899364644 -0.20631968365 -0.76397393161 -0.85264379182 -0.16200848774 0.55861329852 -1.6523851332 -0.14049891967 1.3613283273 
-1.0247853033 -0.20966033852 -0.78687967478 -1.0575903063 -0.20812413097 0.63300076136 -0.91776202289 -0.23311069827 0.57121283505 
-1.7282836588 -0.27716885348 -1.1077656889 -1.0126802791 -0.22109140059 -0.79245614043 -1.089506232 -0.22201769995 -0.53213591143 
-0.96311910946 -0.12052965268 0.51661300563 -1.7059798977 -0.089311849895 0.83382162581 -0.98279804626 -0.20350129322 -0.48915148755 
-0.86476678577 -0.18363026641 0.47155073889 -2.0973686947 -0.22870598679 -0.7554257184 -1.7286187471 -0.14897896065 0.93245810355 
-1.0215407594 -0.29631240482 -0.52531306777 -1.1270306674 -0.20373213168 -0.19584860181 -1.1288717672 -0.167552254 -0.11006082032 
-1.186287646 -0.18087108309 0.18573551111 -0.95838032218 -0.09535812258 0.26783797402 -0.93909556459 -0.10567339374 0.53393658925 
-2.1523318985 -0.50907403329 -0.36486905824 -1.982768155 -0.37031354374 0.28769081741 -2.0160352684 -0.46059549442 0.76158145632 
-1.0998924434 -0.26536905204 -0.37251658613 -1.3174288594 -0.2188945301 -0.17636625077 -1.1829971747 -0.15730497977 0.18148988782 
-1.0879321494 -0.066371554476 0.40181929711 -2.0025941715 -0.35485407359 0.20343016737 -1.9771736352 -0.010502460593 -0.078422272495 
-1.2706651812 -0.12445720009 -0.10334849272 
radius 1 100 double
0.03 0.03 0.03 0.03 0.03 0.03 0.03 0.03 0.03 
0.03 0.03 0.03 0.03 0.03 0.03 0.03 0.03 0.03 
0.03 0.03 0.03 0.03 0.03 0.03 0.03 0.03 0.03 
0.03 0.03 0.03 0.03 0.03 0.03 0.03 0.03 0.03 
0.03 0.03 0.03 0.03 0.03 0.03 0.03 0.03 0.03 
0.03 0.03 0.03 0.03 0.03 0.03 0.03 0.03 0.03 
0.03 0.03 0.03 0.03 0.03 0.03 0.03 0.03 0.03 
0.03 0.03 0.03 0.03 0.03 0.03 0.03 0.03 0.03 
0.03 0.03 0.03 0.03 0.03 0.03 0.03 0.03 0.03 
0.03 0.03 0.03 0.03 0.03 0.03 0.03 0.03 0.03 
0.03 0.03 0.03 0.03 0.03 0.03 0.03 0.03 0.03 
0.03 
