# vtk DataFile Version 5.1
Generated by LIGGGHTS
ASCII
DATASET POLYDATA
POINTS 100 float
-0.0311895 1.31137 -0.57964 0.129953 1.29579 -0.571181 -0.0871405 1.30289 -0.549764 
0.0529346 1.28707 -0.565402 0.150674 1.26189 -0.525929 0.214743 1.26482 -0.525213 
-0.141456 1.29989 -0.515772 -0.242067 1.34031 -0.52517 0.300154 1.25416 -0.483544 
-0.246121 1.31538 -0.470698 0.380953 1.23498 -0.420415 -0.396522 1.365 -0.4237 
0.471911 1.23689 -0.341098 -0.448256 1.37796 -0.372086 -0.411292 1.34606 -0.337212 
0.389038 1.70726 -0.324192 0.456497 1.70838 -0.305448 0.412951 1.69493 -0.266425 
0.491456 1.70425 -0.25686 0.555828 1.24644 -0.215516 -0.504857 1.38514 -0.26299 
0.519706 1.19855 -0.213407 0.448486 1.68689 -0.218754 0.51205 1.69269 -0.201263 
-0.49815 1.37337 -0.204433 0.468538 1.67682 -0.16311 0.531287 1.683 -0.144956 
-0.519879 1.38167 -0.144453 0.487379 1.66833 -0.106752 0.542697 1.67591 -0.0847261 
0.592577 1.19805 -0.0358919 -0.554056 1.40785 -0.0795599 -0.498991 1.38572 -0.0884099 
0.445377 1.67321 -0.0641792 0.500609 1.65902 -0.0454374 0.591874 1.19093 0.0321475 
-0.510717 1.39824 -0.01307 0.487119 1.64799 0.0120875 0.545592 1.65892 0.00425786 
0.530101 1.14381 0.0476051 -0.564431 1.42116 0.00118725 0.501616 1.67144 0.0654886 
0.561643 1.66746 0.0615646 0.562949 1.16125 0.0978637 -0.54596 1.42346 0.0774214 
0.468176 1.63335 0.0976968 0.530562 1.64095 0.108437 -0.508959 1.42194 0.125189 
0.488864 1.66046 0.147063 -0.582324 0.970566 0.138268 0.454188 1.62142 0.176611 
0.556417 1.16518 0.192516 -0.543756 1.44717 0.167056 0.50972 1.6336 0.196497 
0.557847 1.66546 0.180101 -0.563236 0.985326 0.193366 -0.507805 1.44295 0.21495 
0.451473 1.61368 0.236047 -0.448703 1.4345 0.221117 0.50349 1.63589 0.256132 
0.503654 1.14311 0.301336 -0.418156 1.443 0.273593 0.404764 1.6038 0.274976 
0.459558 1.61728 0.295394 -0.477119 1.4525 0.282304 0.357241 1.59392 0.313431 
-0.443938 1.4646 0.333723 -0.384143 1.4539 0.324501 0.305851 1.58329 0.354478 
0.416315 1.60135 0.333803 0.371466 1.58882 0.371638 0.426636 1.12804 0.408647 
-0.309178 1.46963 0.393365 0.262961 1.57247 0.405559 0.326748 1.57978 0.410611 
0.377426 1.1363 0.457232 -0.400544 1.4883 0.406204 -0.346756 1.48764 0.43818 
0.233522 1.56403 0.470614 0.2905 1.57932 0.458422 -0.298222 1.50137 0.480144 
-0.190082 1.49467 0.476661 -0.121938 1.50403 0.498166 0.00777189 1.52792 0.483996 
0.139635 1.54609 0.494782 -0.242459 1.50462 0.50424 -0.188472 1.51788 0.532008 
-0.0485218 1.52034 0.512249 0.0765611 1.54253 0.525487 0.170602 1.57056 0.539975 
-0.141423 1.03044 0.56043 -0.080352 1.03265 0.562947 0.0854432 1.06425 0.570586 
0.144343 1.06369 0.550471 -0.131124 1.52556 0.553437 0.0174985 1.53686 0.542522 
0.114871 1.57116 0.563541 0.156397 1.11143 0.585146 -0.0396251 1.54567 0.569492 
0.0562606 1.5681 0.57601 
VERTICES 101 100
OFFSETS vtktypeint64
0 1 2 3 4 5 6 7 8 
9 10 11 12 13 14 15 16 17 
18 19 20 21 22 23 24 25 26 
27 28 29 30 31 32 33 34 35 
36 37 38 39 40 41 42 43 44 
45 46 47 48 49 50 51 52 53 
54 55 56 57 58 59 60 61 62 
63 64 65 66 67 68 69 70 71 
72 73 74 75 76 77 78 79 80 
81 82 83 84 85 86 87 88 89 
90 91 92 93 94 95 96 97 98 
99 100 
CONNECTIVITY vtktypeint64
0 1 2 3 4 5 6 7 8 
9 10 11 12 13 14 15 16 17 
18 19 20 21 22 23 24 25 26 
27 28 29 30 31 32 33 34 35 
36 37 38 39 40 41 42 43 44 
45 46 47 48 49 50 51 52 53 
54 55 56 57 58 59 60 61 62 
63 64 65 66 67 68 69 70 71 
72 73 74 75 76 77 78 79 80 
81 82 83 84 85 86 87 88 89 
90 91 92 93 94 95 96 97 98 
99 
POINT_DATA 100
FIELD FieldData 4
id 1 100 int
68 35 24 14 30 95 53 70 19 
6 1 59 64 85 54 8 47 34 
63 78 4 80 62 79 60 43 50 
67 16 28 38 45 46 100 29 37 
13 69 18 88 32 5 17 51 26 
42 10 55 96 94 84 61 31 73 
21 71 93 83 99 39 49 91 77 
75 23 48 27 33 40 81 44 90 
12 58 89 41 20 76 87 72 36 
11 52 15 25 97 7 65 92 2 
86 74 66 98 9 57 82 22 3 
56 
type 1 100 int
1 1 1 1 1 1 1 1 1 
1 1 1 1 1 1 1 1 1 
1 1 1 1 1 1 1 1 1 
1 1 1 1 1 1 1 1 1 
1 1 1 1 1 1 1 1 1 
1 1 1 1 1 1 1 1 1 
1 1 1 1 1 1 1 1 1 
1 1 1 1 1 1 1 1 1 
1 1 1 1 1 1 1 1 1 
1 1 1 1 1 1 1 1 1 
1 1 1 1 1 1 1 1 1 
1 
v 3 100 double
1.7236336955 -0.26236862966 -0.24039934892 1.7661696653 -0.28977471872 0.23356550459 1.801924631 -0.34268453616 -0.12829600185 
1.9016892759 -0.35988503596 0.28751584184 1.8305998908 -0.14087143568 0.31351211091 1.8652654766 -0.31068335141 0.79490834957 
1.6296596204 -0.23492395302 -0.3086991203 1.7391656359 -0.22278609634 -0.78168347659 1.6893891017 -0.22550121803 1.2164440554 
1.5394923333 -0.2287561919 -0.77946368921 1.4681525283 -0.38593562964 1.2142420724 1.3181960683 -0.21564236172 -1.2209760318 
1.2911038685 -0.21973670007 1.5185835285 1.0869443664 -0.37407864683 -1.3351503878 1.1154396044 -0.329750133 -1.3248043522 
0.59169388703 -0.14116370134 0.71446905038 0.38655874262 -0.15417224517 0.69223048435 0.40022856604 -0.094376054246 0.71004685495 
0.38214504391 -0.054675199483 0.70404693671 0.7429681532 -0.46184211988 1.9262068339 0.46466863413 -0.1661736481 -1.3754120396 
0.59997458879 -0.38457316731 1.704101251 0.40431228097 -0.10905978234 0.7037632792 0.34876625431 -0.094078148912 0.73289262784 
0.53448867705 -0.21381640003 -1.3888336784 0.35927546838 -0.11951917836 0.71915911439 0.14687615082 -0.092374154537 0.78003785824 
0.40215626685 -0.13333893919 -1.6956898837 0.16763511354 -0.11996007877 0.7890558251 0.14937909997 -0.10660132406 0.84450800634 
0.35832174541 -0.24702033486 2.0006661666 0.20130196251 -0.24943364253 -1.5281153176 0.21035799545 -0.23341017704 -1.6036111781 
0.19257284032 -0.16716675662 0.81078757481 0.18095296742 -0.13167186607 0.86037200797 -0.22356056235 -0.20748050286 2.1502265882 
-0.20858382459 -0.1822544825 -1.4810192448 0.06963627315 -0.11308006055 0.83851869167 0.063536499908 -0.011781538775 0.93308386049 
0.16239958943 -0.21223769038 1.6818319965 -0.1589204339 0.039590189892 -1.6272248859 -0.071235776752 -0.19272821305 0.92285558025 
-0.17167167994 -0.19620447776 1.0425184463 -0.1820836306 -0.26089283233 2.0028857769 -0.21382833079 -0.26664282703 -1.6313134069 
-0.18124269688 -0.1188971319 0.89697171608 -0.19982096263 -0.21509298473 1.0042902561 -0.55231859674 -0.15956751038 -1.3379897742 
-0.2379662067 -0.18333308842 0.95677255357 -0.51543011073 0.11715341875 -2.2636090717 -0.34605762909 -0.15002102827 0.87839920788 
-0.79462203438 -0.27729804032 2.0508494906 -0.67748767683 -0.17453001274 -1.4255536806 -0.39117309332 -0.15578715447 1.0320208066 
-0.39929816394 -0.21941743339 0.88499137678 -0.73467128477 -0.33662792494 -1.9587868949 -0.61033214945 -0.24074507112 -1.4315053096 
-0.42321389829 -0.160777307 0.87376150126 -0.6077528745 -0.19384305271 -1.2166525886 -0.46066727268 -0.20396998677 1.0279903372 
-1.2830851867 -0.20482133746 1.5797831216 -0.84804064238 -0.2263105685 -1.1091580216 -0.5294512844 -0.14429193517 0.72748774646 
-0.58949047855 -0.1243614392 0.8879076512 -0.82924008548 -0.1117772491 -1.4148260627 -0.61599053637 -0.15351540948 0.71708311388 
-0.97895459853 -0.26819146637 -1.2870408056 -0.95629121193 -0.18642069963 -1.0120373006 -0.80078231834 -0.1576485612 0.57136952309 
-0.65212390447 -0.20012180971 0.75450109758 -0.66746834877 -0.16166889571 0.73211081452 -1.318482288 -0.64100936477 1.4621781787 
-0.62920375293 -0.12894713747 -0.59911998714 -0.82607453644 -0.16126226728 0.58004493985 -0.80411897454 -0.17939132371 0.57171613357 
-1.6830701569 -0.44442718244 1.2134935118 -1.0828822415 0.028972934341 -1.0607236008 -1.2012824024 -0.14784894955 -0.85499147519 
-0.83516228542 -0.024232180694 0.67280238514 -0.80649730137 -0.18133580655 0.57178275874 -1.2180934172 -0.037793138686 -0.74647602415 
-1.1823280955 -0.25623332972 -0.61788994725 -1.40055234 -0.16148037772 -0.36523025434 -0.76968923795 -0.16819426929 0.2283653306 
-0.97609504284 -0.21834961543 0.58587554233 -1.219910152 -0.28120016942 -0.6800014548 -1.2761361902 -0.30733781492 -0.60162074444 
-0.79253710309 -0.17502225913 -0.34322806365 -1.0419737544 -0.10615652852 0.28540303433 -0.95996909946 -0.11849142075 0.51996776505 
-2.155202408 0.035427502935 -0.72957520013 -2.2245071975 -0.5464126982 -0.31505496742 -2.0699698157 -0.23611921827 0.34168122297 
-2.0243716069 -0.20931553973 0.630922574 -1.3422940198 -0.3488862232 -0.2770443689 -1.0897022096 -0.1218549274 0.27440217542 
-1.0906909583 -0.052060044372 0.23591853859 -2.1584806108 0.057128582732 0.40595139071 -1.3243362947 -0.1576993428 -0.12929943166 
-1.0921487911 -0.066443761706 0.22547906125 
radius 1 100 double
0.03 0.03 0.03 0.03 0.03 0.03 0.03 0.03 0.03 
0.03 0.03 0.03 0.03 0.03 0.03 0.03 0.03 0.03 
0.03 0.03 0.03 0.03 0.03 0.03 0.03 0.03 0.03 
0.03 0.03 0.03 0.03 0.03 0.03 0.03 0.03 0.03 
0.03 0.03 0.03 0.03 0.03 0.03 0.03 0.03 0.03 
0.03 0.03 0.03 0.03 0.03 0.03 0.03 0.03 0.03 
0.03 0.03 0.03 0.03 0.03 0.03 0.03 0.03 0.03 
0.03 0.03 0.03 0.03 0.03 0.03 0.03 0.03 0.03 
0.03 0.03 0.03 0.03 0.03 0.03 0.03 0.03 0.03 
0.03 0.03 0.03 0.03 0.03 0.03 0.03 0.03 0.03 
0.03 0.03 0.03 0.03 0.03 0.03 0.03 0.03 0.03 
0.03 
