# vtk DataFile Version 5.1
Generated by LIGGGHTS
ASCII
DATASET POLYDATA
POINTS 73 float
0.12205 0.600627 0.587578 -0.672301 -0.752875 -0.676638 -0.732571 -0.555798 -0.655408 
-0.0350013 0.34809 -0.609135 -0.0942731 0.322061 -0.575427 0.106211 0.271264 -0.561644 
0.165385 0.26536 -0.549756 0.279186 0.244574 -0.49998 0.222455 0.261934 -0.531028 
-0.254993 0.336077 -0.522034 -0.643911 -0.483374 -0.484071 0.278789 0.220157 -0.44481 
0.337156 0.231358 -0.454475 -0.333608 0.346916 -0.479297 0.395234 0.233318 -0.422428 
-0.39037 0.363953 -0.439327 -0.648894 -0.332207 -0.385895 0.466512 0.21631 -0.333743 
-0.465486 0.37761 -0.358438 0.505237 0.213348 -0.283916 -0.498062 0.383606 -0.308049 
-0.64364 -0.214985 -0.281384 0.523496 0.189428 -0.212624 -0.622787 -0.161026 -0.228396 
0.570091 0.217543 -0.185579 -0.502348 0.370247 -0.245681 -0.560149 0.426846 -0.202745 
-0.579739 0.425722 -0.142304 0.588092 0.206237 -0.0791023 -0.607461 -0.0976049 -0.08692 
0.598808 0.189184 0.00651812 -0.584245 0.424226 -0.0635893 -0.607912 -0.057118 -0.0114119 
-0.584884 0.430951 0.0220494 -0.596982 -0.0362855 0.0714532 0.588573 0.185287 0.12032 
-0.580021 0.451998 0.108403 0.563983 0.167754 0.187894 -0.540847 0.42625 0.146171 
-0.571527 -0.00751909 0.183518 0.534217 0.16323 0.262301 -0.53899 0.458859 0.21718 
-0.518788 0.480769 0.28855 0.490506 0.166236 0.347352 -0.44462 -0.0434458 0.347614 
-0.455854 0.468695 0.34361 -0.469522 0.00653677 0.371137 0.447228 0.166251 0.41434 
0.433576 0.625747 0.402404 -0.42363 -0.00556371 0.411482 -0.41223 0.494721 0.417702 
0.37931 0.623203 0.450703 0.361268 0.11748 0.463923 -0.356104 0.487433 0.445998 
-0.279511 0.484087 0.472278 0.170454 0.545109 0.506658 0.312734 0.592524 0.489811 
0.27139 0.0869105 0.51829 -0.317055 0.522191 0.49995 -0.260138 0.51468 0.520169 
0.259988 0.588412 0.520741 -0.184792 0.0214237 0.548779 0.164629 0.0839767 0.572165 
0.222793 0.10442 0.550759 -0.20206 0.514306 0.536149 -0.0954393 0.519041 0.55085 
0.113281 0.55293 0.552252 0.16926 0.57348 0.559513 0.0265771 0.0501221 0.583918 
0.0951633 0.0631092 0.572485 -0.151769 0.534259 0.565043 -0.00395539 0.542121 0.576846 
-0.0620482 0.55605 0.584249 
VERTICES 74 73
OFFSETS vtktypeint64
0 1 2 3 4 5 6 7 8 
9 10 11 12 13 14 15 16 17 
18 19 20 21 22 23 24 25 26 
27 28 29 30 31 32 33 34 35 
36 37 38 39 40 41 42 43 44 
45 46 47 48 49 50 51 52 53 
54 55 56 57 58 59 60 61 62 
63 64 65 66 67 68 69 70 71 
72 73 
CONNECTIVITY vtktypeint64
0 1 2 3 4 5 6 7 8 
9 10 11 12 13 14 15 16 17 
18 19 20 21 22 23 24 25 26 
27 28 29 30 31 32 33 34 35 
36 37 38 39 40 41 42 43 44 
45 46 47 48 49 50 51 52 53 
54 55 56 57 58 59 60 61 62 
63 64 65 66 67 68 69 70 71 
72 
POINT_DATA 73
FIELD FieldData 4
id 1 73 int
28 53 6 87 58 25 82 92 56 
2 59 15 65 72 9 40 54 57 
89 3 48 85 7 60 52 44 81 
75 12 4 36 73 67 39 46 11 
77 97 83 45 76 84 21 20 13 
42 32 27 47 93 96 8 99 10 
17 34 63 91 5 18 79 26 33 
55 69 100 62 43 31 23 29 50 
16 
type 1 73 int
1 1 1 1 1 1 1 1 1 
1 1 1 1 1 1 1 1 1 
1 1 1 1 1 1 1 1 1 
1 1 1 1 1 1 1 1 1 
1 1 1 1 1 1 1 1 1 
1 1 1 1 1 1 1 1 1 
1 1 1 1 1 1 1 1 1 
1 1 1 1 1 1 1 1 1 
1 
v 3 73 double
-1.9065777909 -0.11108728926 0.36096130167 -0.23111617135 -3.7613482765 -2.1723499201 -0.45320964118 -3.1271367501 -2.3053621406 
2.0494312636 -0.58921196465 -0.25652513971 2.357496822 -0.30620921049 -0.27899315219 1.9190464851 -0.36778448182 0.35819022897 
1.8212989368 -0.16537289874 0.60519900176 1.6092328798 -0.011204863241 1.105625287 1.7919876805 -0.20780098979 0.66376687373 
1.9220589104 -0.36138804794 -0.74657980405 -0.2037713904 -2.9877615988 -2.179793368 1.7289840052 -0.13156624901 0.79367163546 
1.7956075512 -0.12620541128 1.2110501904 1.7279452398 -0.2803963986 -1.4909270804 1.6134266272 -0.40035872379 1.30206882 
1.6735827267 -0.10541647145 -1.4590874622 -0.2733998726 -2.4566977449 -2.2694582341 1.3733865921 -0.29965385408 1.7023510108 
1.2988364172 -0.4192766038 -1.6338615452 0.98802778354 -0.0076940727058 1.8126907584 1.2537292317 -0.2961641334 -1.7526736153 
-0.2694155386 -1.8520897471 -2.0518921647 0.85443415886 -0.30164193912 1.9759818564 -0.20912877787 -1.4718386779 -2.3273453665 
0.85555348338 -0.32414560373 1.99824434 0.83919872942 -0.40409502948 -1.7161163217 0.78540303676 -0.20961558087 -1.8758499755 
0.27714907887 -0.62303152183 -1.9869625945 0.17737480678 -0.45688017846 2.0596267765 -0.21451941238 -1.1391348178 -2.1877401215 
-0.16210017204 0.22443943235 2.1090426592 0.027040966645 -0.095500215973 -2.2052471889 -0.28230373768 -0.57864054812 -2.1608574647 
-0.34595374476 -0.27663127019 -2.0937666798 -0.37590946788 -0.097072578189 -2.1698398178 -0.250407888 -0.25026557903 2.1299891434 
-0.48285309991 -0.23553862324 -2.0931164972 -0.93025560398 -0.31752713841 1.895375847 -0.42300238984 -0.10531227256 -2.1234758976 
-0.77657141697 -0.51575286059 -2.1346752618 -0.80872114143 -0.44650659493 1.9349376177 -0.93959164922 -0.22280825907 -1.8901675565 
-1.0199252908 -0.010789554542 -1.8562275676 -1.2353035842 -0.07352813937 1.7112718732 -1.25745468 -0.66720164004 -1.7561607688 
-1.3203032869 -0.31250151314 -1.7142611188 -1.2300381873 -0.56277751096 -1.7918551654 -1.2277912395 -0.35795415788 1.7587052337 
-1.1393758282 -0.47364192075 1.3438868336 -1.1571575812 -0.17389266858 -1.6051564831 -1.3589689752 0.017306068291 -1.4949184486 
-1.489628898 -0.29194263848 1.1621311484 -1.6916223535 -0.46920373795 1.1776202242 -1.5564792578 -0.40729310324 -1.2558850107 
-1.669108127 -0.22794728285 -0.93689154505 -1.8214211734 -0.33751873389 0.71593297588 -1.7162671541 -0.46296284833 1.177805257 
-1.9266308202 -0.18645266862 0.90109142857 -1.7329532377 -0.14206190006 -1.1151378236 -1.8255030442 -0.36886267934 -0.79362485554 
-1.8291915963 0.19163293928 0.97158546431 -2.2674704956 -0.18598864704 -0.83645089484 -2.1268897369 -0.11854649169 1.0141806968 
-2.0688867673 -0.31674897664 0.93853751679 -1.8424544461 -0.20114526695 -0.67024638069 -1.8064726258 -0.27199075818 -0.19433525253 
-1.9385477083 -0.19835662414 0.4872040162 -1.8893905098 -0.39243054914 0.74390978848 -2.2235214411 -0.73910171102 0.07149597936 
-2.0384245211 -0.41042853526 0.19703958094 -1.8982318413 -0.050147806682 -0.63815665993 -2.0145393115 -0.15567689748 -0.18270847756 
-2.0519332093 -0.17702770293 -0.055605422493 
radius 1 73 double
0.03 0.03 0.03 0.03 0.03 0.03 0.03 0.03 0.03 
0.03 0.03 0.03 0.03 0.03 0.03 0.03 0.03 0.03 
0.03 0.03 0.03 0.03 0.03 0.03 0.03 0.03 0.03 
0.03 0.03 0.03 0.03 0.03 0.03 0.03 0.03 0.03 
0.03 0.03 0.03 0.03 0.03 0.03 0.03 0.03 0.03 
0.03 0.03 0.03 0.03 0.03 0.03 0.03 0.03 0.03 
0.03 0.03 0.03 0.03 0.03 0.03 0.03 0.03 0.03 
0.03 0.03 0.03 0.03 0.03 0.03 0.03 0.03 0.03 
0.03 
