# vtk DataFile Version 5.1
Generated by LIGGGHTS
ASCII
DATASET POLYDATA
POINTS 100 float
0.0898323 0.322867 -0.595874 0.0736138 0.785895 -0.569167 0.158096 0.795623 -0.569599 
-0.0914445 0.820804 -0.574545 -0.0783376 1.33385 -0.583864 -0.150532 0.817646 -0.559505 
0.217426 0.800412 -0.557177 0.035335 1.28768 -0.56323 0.095276 1.27963 -0.559235 
-0.0245518 1.2949 -0.562973 -0.19381 1.33697 -0.5488 0.314738 0.271137 -0.501054 
-0.211386 0.839267 -0.543863 0.128313 1.25298 -0.503405 0.245504 1.25575 -0.509415 
-0.0554542 1.27948 -0.5122 0.0620115 1.26251 -0.512278 0.182033 1.26281 -0.528719 
-0.104193 1.30225 -0.539893 0.191838 1.24051 -0.473873 0.314352 1.24716 -0.470043 
-0.144963 1.29445 -0.496556 -0.342208 0.347038 -0.468957 0.374488 0.769804 -0.462757 
0.251913 1.23305 -0.454218 -0.329981 1.36153 -0.483379 -0.353844 0.850499 -0.452348 
0.316453 1.22339 -0.414639 0.376262 1.22801 -0.415965 0.417792 0.726204 -0.384198 
-0.417309 0.867851 -0.412393 0.418107 1.22265 -0.373252 -0.321976 1.32739 -0.419196 
-0.464943 0.384744 -0.357696 0.412949 1.20215 -0.317026 0.471479 1.21388 -0.310969 
-0.398248 1.34394 -0.359309 0.496149 0.717503 -0.298487 -0.49898 0.891589 -0.312264 
0.502394 1.20818 -0.259716 0.543121 0.704279 -0.196006 0.536313 1.20609 -0.201838 
0.580918 0.719918 -0.151442 -0.521349 0.88237 -0.188683 0.488321 1.17767 -0.179728 
-0.562268 0.412471 -0.188026 -0.56956 0.915583 -0.160195 0.535552 1.17584 -0.129448 
-0.527852 0.374743 -0.144261 -0.539713 0.888422 -0.114732 0.520934 1.16174 -0.072945 
0.597854 0.714082 -0.0510899 0.570484 1.18165 -0.0436198 -0.547999 0.899309 -0.0399137 
-0.557661 0.403617 -0.0181264 -0.592461 0.937957 -0.0284988 0.568495 1.16962 0.0286381 
0.543589 0.64063 0.0746557 0.585922 0.678766 0.0934508 -0.562493 0.91825 0.0296131 
-0.592588 0.478118 0.0817962 0.543591 1.14534 0.102162 -0.582678 0.963131 0.118387 
-0.539366 0.931939 0.149651 0.513098 1.12721 0.173937 0.54197 0.648899 0.210882 
-0.576831 0.484942 0.18054 0.489457 1.11688 0.228266 0.523462 0.653108 0.272414 
0.530071 1.15248 0.255165 -0.527409 0.479899 0.271612 -0.530901 0.972054 0.246046 
0.487307 1.1282 0.291362 -0.484422 0.95098 0.278927 -0.477845 0.464149 0.315096 
0.472648 0.633944 0.349677 -0.412835 0.960399 0.352793 -0.466339 0.987567 0.350488 
0.442131 1.12351 0.378427 0.409358 0.615679 0.420028 -0.364712 0.968842 0.399494 
0.375931 1.0956 0.405037 -0.419652 0.993571 0.402609 0.374852 1.12709 0.456098 
0.363565 0.617849 0.461656 -0.376522 1.00532 0.446103 -0.319481 0.985457 0.454215 
-0.347366 0.518506 0.475346 0.299463 0.595267 0.504763 0.327385 1.11806 0.493097 
-0.254714 0.525969 0.530008 0.211766 0.578491 0.540126 -0.231295 1.00424 0.513629 
-0.298946 1.02412 0.507643 0.134688 0.578006 0.570325 -0.15471 1.02226 0.549142 
0.185812 1.11224 0.572608 -0.105282 0.549346 0.575993 -0.0563116 1.04788 0.575214 
0.016344 1.0576 0.582837 
VERTICES 101 100
OFFSETS vtktypeint64
0 1 2 3 4 5 6 7 8 
9 10 11 12 13 14 15 16 17 
18 19 20 21 22 23 24 25 26 
27 28 29 30 31 32 33 34 35 
36 37 38 39 40 41 42 43 44 
45 46 47 48 49 50 51 52 53 
54 55 56 57 58 59 60 61 62 
63 64 65 66 67 68 69 70 71 
72 73 74 75 76 77 78 79 80 
81 82 83 84 85 86 87 88 89 
90 91 92 93 94 95 96 97 98 
99 100 
CONNECTIVITY vtktypeint64
0 1 2 3 4 5 6 7 8 
9 10 11 12 13 14 15 16 17 
18 19 20 21 22 23 24 25 26 
27 28 29 30 31 32 33 34 35 
36 37 38 39 40 41 42 43 44 
45 46 47 48 49 50 51 52 53 
54 55 56 57 58 59 60 61 62 
63 64 65 66 67 68 69 70 71 
72 73 74 75 76 77 78 79 80 
81 82 83 84 85 86 87 88 89 
90 91 92 93 94 95 96 97 98 
99 
POINT_DATA 100
FIELD FieldData 4
id 1 100 int
71 60 85 4 50 67 54 16 29 
28 34 94 46 69 10 43 100 18 
62 5 42 79 86 59 17 8 45 
96 21 6 32 83 63 74 84 77 
47 53 13 73 70 75 24 93 39 
66 26 44 98 31 81 68 48 23 
22 55 89 14 35 99 41 40 33 
91 72 30 90 2 95 58 49 27 
87 20 61 19 97 76 25 1 11 
82 36 56 64 12 52 51 80 92 
37 78 9 7 38 3 15 88 57 
65 
type 1 100 int
1 1 1 1 1 1 1 1 1 
1 1 1 1 1 1 1 1 1 
1 1 1 1 1 1 1 1 1 
1 1 1 1 1 1 1 1 1 
1 1 1 1 1 1 1 1 1 
1 1 1 1 1 1 1 1 1 
1 1 1 1 1 1 1 1 1 
1 1 1 1 1 1 1 1 1 
1 1 1 1 1 1 1 1 1 
1 1 1 1 1 1 1 1 1 
1 1 1 1 1 1 1 1 1 
1 
v 3 100 double
2.3355137759 -0.24136396903 0.12230606345 2.238552672 -0.26421436862 0.22409742942 1.9348253986 -0.079693188105 0.7121960997 
2.0601696855 -0.50897711459 -0.23556187756 1.7199818703 -0.43161104716 -0.12004553916 1.9473037206 -0.050175695975 -0.38047594121 
1.9882094144 -0.37025958033 0.72371548831 1.6206136894 -0.16764792373 -0.0070318593561 1.6429802922 -0.30889648605 0.31435280672 
1.5825158592 -0.37972821294 0.063329597694 1.5115499241 -0.40196355451 -0.5286107581 1.9195073584 -0.027341535891 1.3351904045 
2.0103749535 -0.45821724295 -0.87491282721 1.475516105 -0.21226349981 0.4505348803 1.5134131876 -0.24723917912 0.61196759812 
1.3825290852 -0.21210108704 -0.018817386924 1.3813655923 -0.22346588649 0.17869790682 1.5217712442 -0.24296796317 0.57267854801 
1.4138741263 -0.24065509127 -0.16283731619 1.4983877135 -0.24459252403 0.57846630479 1.3067390123 -0.17105101279 0.9126095457 
1.2268954987 -0.21305519637 -0.34078405805 1.8744164381 -0.34836736738 -1.5159906107 1.9602452773 -0.3471547984 1.2721967063 
1.47354636 -0.14025550329 0.66555627671 1.1378405495 -0.37164740089 -0.76479221392 1.8058339899 -0.36157499297 -1.4083136901 
1.1706323116 -0.2293220915 0.87247477327 1.1893235934 -0.40389983827 1.0761593316 1.3934882651 -0.21931628064 1.6553630416 
1.7252074582 -0.23783912025 -1.217509368 0.98930366795 -0.23466101923 1.2576448142 1.2363610957 -0.20745301858 -1.0701302736 
1.5037567533 -0.60953502124 -1.6709468056 0.94548564823 -0.25711526932 1.2526709084 0.9524677809 -0.35840499618 1.3807128439 
0.91090806374 -0.2330863217 -1.2215142302 1.1343300211 0.1338010186 2.0190537536 1.2040036806 0.13799846194 -1.8494231715 
0.86588271648 -0.17289354435 1.4725063009 0.72180938782 -0.27202491337 1.8436157348 0.7852584728 -0.19608354409 1.6293000278 
0.33135734793 0.034447950735 2.2610680473 0.6517611104 -0.24501826562 -1.9105369639 0.73981329333 -0.23874596972 1.475549546 
0.83204556375 -0.1141856173 -2.246877603 0.68385644991 -0.18372139855 -2.028958 0.33715019941 -0.17550493255 1.6756926229 
0.7025849267 -0.094044665614 -2.4277790222 0.29437378752 -0.34635752967 -1.8863117204 0.51157238088 -0.23162421966 1.7087817575 
0.31152685286 -0.22300514864 2.1063605666 0.37343435475 -0.22964807875 1.9830270471 0.153325194 -0.24241798269 -1.8691410729 
0.12517229105 -0.20644282171 -2.1472067555 0.22038755708 -0.17731143501 -1.8518552333 0.070057284377 -0.054316227497 1.804654597 
-0.30105967049 -0.37291206278 2.2765420581 -0.31283162595 -0.3933538981 2.3820310742 -0.0783453018 -0.42830937179 -1.7891665075 
-0.21901850836 -0.27991439794 -2.150766437 -0.22012917654 -0.27376916889 1.6871879484 -0.2249285892 -0.33079660353 -1.8737868728 
-0.16934084866 -0.2733845545 -1.7936029967 -0.61089604686 -0.2255868879 1.691016954 -0.8709024333 -0.33376436308 2.1335501256 
-0.90977817904 -0.33320586377 -2.0297352816 -0.84690458535 -0.41928055021 1.5672806203 -0.88362858465 -0.69026814046 1.870468812 
-0.76273524952 -0.58940156119 1.5508836083 -1.0813037385 -0.12467662327 -2.0670441728 -0.8831052388 -0.16928423709 -1.7761971509 
-0.94622495642 -0.15473363521 1.6243162142 -0.86442009333 -0.07810996899 -1.6667975076 -1.4924991687 -0.50082161801 -1.7762972889 
-1.2616143615 -0.30734503707 1.6674840362 -1.3641500653 -0.19639352875 -1.238343567 -1.2904676301 -0.15527716366 -1.4391793636 
-1.0342477668 -0.18500421128 1.6734256992 -1.4897817965 -0.18798498118 1.1269179721 -1.3903807071 -0.26921685966 -1.0277170969 
-1.1785022995 -0.16496457856 1.1460849461 -1.4034318002 -0.073214812948 -1.2750955001 -1.5073768926 -0.26819204148 1.1672992282 
-1.4986052934 -0.40683224423 1.1567740534 -1.4892015931 -0.18996207522 -1.0304808183 -1.5439630235 -0.27860939956 -1.0872178903 
-1.8289605822 -0.30198189227 -1.3466971467 -1.9976221094 -0.26628478601 0.69558411647 -1.5256737782 -0.3715122522 1.1264995028 
-2.1845317392 -0.49096757938 -0.8053097033 -2.014663657 -0.20840774574 0.932383959 -1.8519996412 -0.39269889669 -0.93362351612 
-1.3423226204 -0.3658062187 -1.2058157717 -2.2719737641 -0.048407376888 0.38924477477 -1.7648815661 -0.31506305019 -0.81248983038 
-1.7820862455 -0.46417426555 0.63800439491 -2.2848849606 -0.42896366762 -0.26731277865 -1.8124164808 -0.49927173724 -0.26978096514 
-2.0377735415 -0.46366329087 0.17912926451 
radius 1 100 double
0.03 0.03 0.03 0.03 0.03 0.03 0.03 0.03 0.03 
0.03 0.03 0.03 0.03 0.03 0.03 0.03 0.03 0.03 
0.03 0.03 0.03 0.03 0.03 0.03 0.03 0.03 0.03 
0.03 0.03 0.03 0.03 0.03 0.03 0.03 0.03 0.03 
0.03 0.03 0.03 0.03 0.03 0.03 0.03 0.03 0.03 
0.03 0.03 0.03 0.03 0.03 0.03 0.03 0.03 0.03 
0.03 0.03 0.03 0.03 0.03 0.03 0.03 0.03 0.03 
0.03 0.03 0.03 0.03 0.03 0.03 0.03 0.03 0.03 
0.03 0.03 0.03 0.03 0.03 0.03 0.03 0.03 0.03 
0.03 0.03 0.03 0.03 0.03 0.03 0.03 0.03 0.03 
0.03 0.03 0.03 0.03 0.03 0.03 0.03 0.03 0.03 
0.03 
