# vtk DataFile Version 5.1
Generated by LIGGGHTS
ASCII
DATASET POLYDATA
POINTS 100 float
-0.330774 2.14739 -0.484286 -0.452823 2.19644 -0.474048 -0.422328 2.27974 -0.478236 
-0.401367 2.35993 -0.477752 -0.23293 2.4774 -0.480749 -0.493993 2.58621 -0.481071 
-0.299683 2.66011 -0.488216 -0.457519 2.73547 -0.49511 -0.275657 2.75742 -0.489374 
-0.450769 2.87358 -0.477641 -0.429903 2.95831 -0.478973 -0.443075 3.11287 -0.498926 
-0.321832 2.30888 -0.451061 -0.324653 2.37292 -0.454283 -0.267684 2.42218 -0.4656 
-0.413519 2.45989 -0.472655 -0.452996 2.52945 -0.461063 -0.459529 2.64872 -0.47653 
-0.384276 2.66135 -0.453583 -0.364227 2.81589 -0.470108 -0.236785 2.81463 -0.471878 
-0.308162 2.88824 -0.471956 -0.438701 3.01846 -0.462359 -0.340268 2.21615 -0.421851 
-0.389401 2.42267 -0.430322 -0.407763 2.57554 -0.432168 -0.226708 2.611 -0.435253 
-0.294573 2.78164 -0.42282 -0.399433 2.89674 -0.416668 -0.320456 2.96175 -0.429832 
-0.260468 3.04015 -0.440735 -0.467357 3.12743 -0.434523 -0.369646 2.13174 -0.396517 
-0.26727 2.41688 -0.401107 -0.467646 2.77571 -0.390921 -0.431259 2.82913 -0.40494 
-0.340758 2.8858 -0.408711 -0.379931 3.02003 -0.415006 -0.351925 3.10128 -0.412245 
-0.313453 2.16937 -0.375805 -0.479028 2.33316 -0.361574 -0.284161 2.32886 -0.379644 
-0.235681 2.76959 -0.370414 -0.214969 2.18103 -0.343531 -0.469049 2.25458 -0.351367 
-0.367232 2.24762 -0.323109 -0.44374 2.40474 -0.333067 -0.244724 2.39517 -0.338072 
-0.466617 2.49011 -0.326993 -0.237806 2.62665 -0.32714 -0.392271 2.68099 -0.326171 
-0.411191 2.76606 -0.342714 -0.387438 2.88875 -0.346239 -0.438936 2.92216 -0.335587 
-0.479073 3.07783 -0.342201 -0.371802 3.063 -0.324929 -0.490132 2.19207 -0.294283 
-0.474183 2.32072 -0.301032 -0.395865 2.31313 -0.317268 -0.310078 2.35216 -0.30466 
-0.308006 2.48255 -0.293642 -0.333809 2.6059 -0.311339 -0.342276 2.74743 -0.321141 
-0.291205 2.80244 -0.308708 -0.362685 2.90937 -0.292377 -0.34612 2.96762 -0.316208 
-0.299798 3.00751 -0.304009 -0.376764 2.13391 -0.265015 -0.280355 2.25398 -0.261959 
-0.283714 2.4128 -0.27844 -0.247944 2.52289 -0.26507 -0.268593 2.65525 -0.269026 
-0.225141 2.76422 -0.284811 -0.420362 2.78725 -0.271467 -0.365268 3.11497 -0.287627 
-0.453346 2.17572 -0.245421 -0.218135 2.21 -0.25318 -0.427134 2.26574 -0.258747 
-0.447137 2.36857 -0.260661 -0.35548 2.354 -0.251969 -0.364725 2.46486 -0.245695 
-0.450208 2.56861 -0.235977 -0.35228 2.59217 -0.245317 -0.498199 2.66147 -0.246827 
-0.202331 2.70548 -0.236716 -0.381644 2.83457 -0.239323 -0.217085 3.04478 -0.241425 
-0.484418 2.28631 -0.200002 -0.37505 2.29811 -0.227959 -0.277868 2.33072 -0.223726 
-0.242397 2.56807 -0.222809 -0.390565 2.64191 -0.214331 -0.358555 2.72105 -0.216705 
-0.280204 2.78507 -0.209778 -0.394262 2.93623 -0.224292 -0.275659 2.96174 -0.222387 
-0.276857 3.03187 -0.204921 -0.368709 3.06034 -0.220757 -0.428516 3.09914 -0.229338 
-0.271857 3.11326 -0.219499 
VERTICES 101 100
OFFSETS vtktypeint64
0 1 2 3 4 5 6 7 8 
9 10 11 12 13 14 15 16 17 
18 19 20 21 22 23 24 25 26 
27 28 29 30 31 32 33 34 35 
36 37 38 39 40 41 42 43 44 
45 46 47 48 49 50 51 52 53 
54 55 56 57 58 59 60 61 62 
63 64 65 66 67 68 69 70 71 
72 73 74 75 76 77 78 79 80 
81 82 83 84 85 86 87 88 89 
90 91 92 93 94 95 96 97 98 
99 100 
CONNECTIVITY vtktypeint64
0 1 2 3 4 5 6 7 8 
9 10 11 12 13 14 15 16 17 
18 19 20 21 22 23 24 25 26 
27 28 29 30 31 32 33 34 35 
36 37 38 39 40 41 42 43 44 
45 46 47 48 49 50 51 52 53 
54 55 56 57 58 59 60 61 62 
63 64 65 66 67 68 69 70 71 
72 73 74 75 76 77 78 79 80 
81 82 83 84 85 86 87 88 89 
90 91 92 93 94 95 96 97 98 
99 
POINT_DATA 100
FIELD FieldData 4
id 1 100 int
98 88 80 60 19 20 24 7 56 
40 92 75 51 38 86 82 9 45 
95 53 72 44 48 71 37 32 30 
70 3 65 2 10 64 74 81 59 
54 15 13 66 46 94 31 41 35 
90 33 22 73 78 52 12 23 77 
17 83 97 18 68 61 27 4 91 
67 89 11 99 85 39 26 1 14 
6 84 87 50 49 8 42 93 63 
28 79 96 55 100 76 47 34 69 
29 5 62 43 16 57 58 25 21 
36 
type 1 100 int
1 1 1 1 1 1 1 1 1 
1 1 1 1 1 1 1 1 1 
1 1 1 1 1 1 1 1 1 
1 1 1 1 1 1 1 1 1 
1 1 1 1 1 1 1 1 1 
1 1 1 1 1 1 1 1 1 
1 1 1 1 1 1 1 1 1 
1 1 1 1 1 1 1 1 1 
1 1 1 1 1 1 1 1 1 
1 1 1 1 1 1 1 1 1 
1 1 1 1 1 1 1 1 1 
1 
v 3 100 double
-0.10838781676 -1.9299494399 1.3460926995 0.77308384743 -1.9824787776 1.0001681072 0 -3.6297 0 
0 -3.6297 0 0 -3.6297 0 0 -3.6297 0 
0 -3.6297 0 0 -3.6297 0 0 -3.6297 0 
0 -3.6297 0 0 -3.6297 0 0 -3.6297 0 
0 -3.6297 0 0 -3.6297 0 0 -3.6297 0 
0 -3.6297 0 0 -3.6297 0 0 -3.6297 0 
0 -3.6297 0 0 -3.6297 0 0 -3.6297 0 
0 -3.6297 0 0 -3.6297 0 0 -3.6297 0 
0 -3.6297 0 0 -3.6297 0 0 -3.6297 0 
0 -3.6297 0 0 -3.6297 0 0 -3.6297 0 
0 -3.6297 0 0 -3.6297 0 0 -3.6297 0 
0 -3.6297 0 0 -3.6297 0 0 -3.6297 0 
0 -3.6297 0 0 -3.6297 0 0 -3.6297 0 
0 -3.6297 0 0 -3.6297 0 0 -3.6297 0 
0 -3.6297 0 0 -3.6297 0 0 -3.6297 0 
0 -3.6297 0 0 -3.6297 0 0 -3.6297 0 
0 -3.6297 0 0 -3.6297 0 0 -3.6297 0 
0 -3.6297 0 0 -3.6297 0 0 -3.6297 0 
0 -3.6297 0 0 -3.6297 0 0 -3.6297 0 
0 -3.6297 0 0 -3.6297 0 0 -3.6297 0 
0 -3.6297 0 0 -3.6297 0 0 -3.6297 0 
0 -3.6297 0 0 -3.6297 0 0 -3.6297 0 
0 -3.6297 0 0 -3.6297 0 0 -3.6297 0 
0 -3.6297 0 0 -3.6297 0 0 -3.6297 0 
0 -3.6297 0 0 -3.6297 0 0 -3.6297 0 
0.91920885515 -2.0474148368 -0.82247046876 -1.0819911413 -1.9289694014 -0.88802004494 0 -3.6297 0 
0 -3.6297 0 0 -3.6297 0 0 -3.6297 0 
0 -3.6297 0 0 -3.6297 0 0 -3.6297 0 
0 -3.6297 0 0 -3.6297 0 0 -3.6297 0 
0 -3.6297 0 0 -3.6297 0 0 -3.6297 0 
0 -3.6297 0 0 -3.6297 0 0 -3.6297 0 
0 -3.6297 0 0 -3.6297 0 0 -3.6297 0 
0 -3.6297 0 0 -3.6297 0 0 -3.6297 0 
0 -3.6297 0 
radius 1 100 double
0.03 0.03 0.03 0.03 0.03 0.03 0.03 0.03 0.03 
0.03 0.03 0.03 0.03 0.03 0.03 0.03 0.03 0.03 
0.03 0.03 0.03 0.03 0.03 0.03 0.03 0.03 0.03 
0.03 0.03 0.03 0.03 0.03 0.03 0.03 0.03 0.03 
0.03 0.03 0.03 0.03 0.03 0.03 0.03 0.03 0.03 
0.03 0.03 0.03 0.03 0.03 0.03 0.03 0.03 0.03 
0.03 0.03 0.03 0.03 0.03 0.03 0.03 0.03 0.03 
0.03 0.03 0.03 0.03 0.03 0.03 0.03 0.03 0.03 
0.03 0.03 0.03 0.03 0.03 0.03 0.03 0.03 0.03 
0.03 0.03 0.03 0.03 0.03 0.03 0.03 0.03 0.03 
0.03 0.03 0.03 0.03 0.03 0.03 0.03 0.03 0.03 
0.03 
