# vtk DataFile Version 5.1
Generated by LIGGGHTS
ASCII
DATASET POLYDATA
POINTS 2 float
0.245843 1.26585 -0.245854 -0.200364 -0.202451 0.200297 
VERTICES 3 2
OFFSETS vtktypeint64
0 1 2 
CONNECTIVITY vtktypeint64
0 1 
POINT_DATA 2
FIELD FieldData 4
id 1 2 int
2 1 
type 1 2 int
1 1 
v 3 2 double
-0.0001050447154 -0.00022615239125 0.00010396149082 3.9940100875e-05 -0.00012997305749 -4.033858436e-05 
radius 1 2 double
0.8 0.8 
