# vtk DataFile Version 5.1
Generated by LIGGGHTS
ASCII
DATASET POLYDATA
POINTS 2 float
0.14557 1.50141 -0.166922 0.0470664 -0.201609 0.030684 
VERTICES 3 2
OFFSETS vtktypeint64
0 1 2 
CONNECTIVITY vtktypeint64
0 1 
POINT_DATA 2
FIELD FieldData 4
id 1 2 int
2 1 
type 1 2 int
1 1 
v 3 2 double
0.12678248158 -1.224969252 -0.25433442866 -0.03765938159 0.043331845198 0.075547324683 
radius 1 2 double
0.8 0.8 
