# vtk DataFile Version 5.1
Generated by LIGGGHTS
ASCII
DATASET POLYDATA
POINTS 2 float
0.270626 1.32988 -0.24239 0.000679928 -0.203649 0.112353 
VERTICES 3 2
OFFSETS vtktypeint64
0 1 2 
CONNECTIVITY vtktypeint64
0 1 
POINT_DATA 2
FIELD FieldData 4
id 1 2 int
2 1 
type 1 2 int
1 1 
v 3 2 double
-0.030626092174 -0.060997387993 -0.015422459482 -0.090272582888 -0.004979098618 0.16661572126 
radius 1 2 double
0.8 0.8 
