# vtk DataFile Version 5.1
Generated by LIGGGHTS
ASCII
DATASET POLYDATA
POINTS 2 float
0.265253 1.31608 -0.262577 -0.0180156 -0.202717 0.145706 
VERTICES 3 2
OFFSETS vtktypeint64
0 1 2 
CONNECTIVITY vtktypeint64
0 1 
POINT_DATA 2
FIELD FieldData 4
id 1 2 int
2 1 
type 1 2 int
1 1 
v 3 2 double
-0.045772731099 -0.11274684616 -0.22474680742 -0.13155688712 0.011309286038 0.22664038215 
radius 1 2 double
0.8 0.8 
