# vtk DataFile Version 5.1
Generated by LIGGGHTS
ASCII
DATASET POLYDATA
POINTS 2 float
0.251466 1.28167 -0.251536 -0.133752 -0.202406 0.200151 
VERTICES 3 2
OFFSETS vtktypeint64
0 1 2 
CONNECTIVITY vtktypeint64
0 1 
POINT_DATA 2
FIELD FieldData 4
id 1 2 int
2 1 
type 1 2 int
1 1 
v 3 2 double
-0.017497626618 -0.046627978431 0.017631533464 -0.21622353735 -0.00019678286605 -0.00010341675771 
radius 1 2 double
0.8 0.8 
