# vtk DataFile Version 5.1
Generated by LIGGGHTS
ASCII
DATASET POLYDATA
POINTS 2 float
0.245818 1.26579 -0.245821 -0.200351 -0.202486 0.200288 
VERTICES 3 2
OFFSETS vtktypeint64
0 1 2 
CONNECTIVITY vtktypeint64
0 1 
POINT_DATA 2
FIELD FieldData 4
id 1 2 int
2 1 
type 1 2 int
1 1 
v 3 2 double
0.00059856493439 0.00052352820666 8.2196133063e-05 0.0004362033544 0.00022457795181 0.00058014893775 
radius 1 2 double
0.8 0.8 
