# vtk DataFile Version 5.1
Generated by LIGGGHTS
ASCII
DATASET POLYDATA
POINTS 2 float
0.270461 1.32939 -0.244409 -0.00320396 -0.20257 0.119386 
VERTICES 3 2
OFFSETS vtktypeint64
0 1 2 
CONNECTIVITY vtktypeint64
0 1 
POINT_DATA 2
FIELD FieldData 4
id 1 2 int
2 1 
type 1 2 int
1 1 
v 3 2 double
0.016837868705 -0.012371335731 -0.078367723455 -0.10249313049 0.034646979179 0.18313287105 
radius 1 2 double
0.8 0.8 
