# vtk DataFile Version 5.1
Generated by LIGGGHTS
ASCII
DATASET POLYDATA
POINTS 2 float
0.245845 1.26585 -0.245856 -0.200364 -0.202449 0.200298 
VERTICES 3 2
OFFSETS vtktypeint64
0 1 2 
CONNECTIVITY vtktypeint64
0 1 
POINT_DATA 2
FIELD FieldData 4
id 1 2 int
2 1 
type 1 2 int
1 1 
v 3 2 double
-4.7567152393e-13 -3.1913921845e-13 4.7666835744e-13 -6.6266093576e-14 -5.5334775207e-13 6.8328156935e-14 
radius 1 2 double
0.8 0.8 
