# vtk DataFile Version 5.1
Generated by LIGGGHTS
ASCII
DATASET POLYDATA
POINTS 2 float
0.257394 1.34221 -0.253331 0.014405 -0.201191 0.089361 
VERTICES 3 2
OFFSETS vtktypeint64
0 1 2 
CONNECTIVITY vtktypeint64
0 1 
POINT_DATA 2
FIELD FieldData 4
id 1 2 int
2 1 
type 1 2 int
1 1 
v 3 2 double
0.36562515527 -0.082119701756 0.14977339024 -0.10927375744 -0.0014001996373 0.14810547356 
radius 1 2 double
0.8 0.8 
