# vtk DataFile Version 5.1
Generated by LIGGGHTS
ASCII
DATASET POLYDATA
POINTS 2 float
0.159029 1.35174 -0.19392 0.0431985 -0.211881 0.0384433 
VERTICES 3 2
OFFSETS vtktypeint64
0 1 2 
CONNECTIVITY vtktypeint64
0 1 
POINT_DATA 2
FIELD FieldData 4
id 1 2 int
2 1 
type 1 2 int
1 1 
v 3 2 double
0.20461983112 -0.38337229201 -0.4104815365 -0.054147789405 -0.42518503218 0.1086242114 
radius 1 2 double
0.8 0.8 
