# vtk DataFile Version 5.1
Generated by LIGGGHTS
ASCII
DATASET POLYDATA
POINTS 2 float
0.248586 1.27385 -0.248637 -0.168778 -0.202401 0.200152 
VERTICES 3 2
OFFSETS vtktypeint64
0 1 2 
CONNECTIVITY vtktypeint64
0 1 
POINT_DATA 2
FIELD FieldData 4
id 1 2 int
2 1 
type 1 2 int
1 1 
v 3 2 double
-0.021229213276 -0.058543909811 0.021365286587 -0.25130433473 -3.1341225193e-06 -1.0302939153e-05 
radius 1 2 double
0.8 0.8 
