# vtk DataFile Version 5.1
Generated by LIGGGHTS
ASCII
DATASET POLYDATA
POINTS 2 float
0.246078 1.26683 -0.246115 -0.197942 -0.202396 0.200154 
VERTICES 3 2
OFFSETS vtktypeint64
0 1 2 
CONNECTIVITY vtktypeint64
0 1 
POINT_DATA 2
FIELD FieldData 4
id 1 2 int
2 1 
type 1 2 int
1 1 
v 3 2 double
-0.024474734687 -0.06948870001 0.02461807143 -0.27927871579 1.6653203845e-05 1.5881794664e-06 
radius 1 2 double
0.8 0.8 
