# vtk DataFile Version 5.1
Generated by LIGGGHTS
ASCII
DATASET POLYDATA
POINTS 2 float
0.270047 1.32621 -0.249301 -0.00843004 -0.20205 0.128871 
VERTICES 3 2
OFFSETS vtktypeint64
0 1 2 
CONNECTIVITY vtktypeint64
0 1 
POINT_DATA 2
FIELD FieldData 4
id 1 2 int
2 1 
type 1 2 int
1 1 
v 3 2 double
-0.062141970185 -0.10709803275 -0.11505809357 -0.10932259209 -0.0073612025168 0.1963317279 
radius 1 2 double
0.8 0.8 
