# vtk DataFile Version 5.1
Generated by LIGGGHTS
ASCII
DATASET POLYDATA
POINTS 2 float
0.256907 1.29564 -0.257064 -0.0611749 -0.202375 0.200276 
VERTICES 3 2
OFFSETS vtktypeint64
0 1 2 
CONNECTIVITY vtktypeint64
0 1 
POINT_DATA 2
FIELD FieldData 4
id 1 2 int
2 1 
type 1 2 int
1 1 
v 3 2 double
-0.021006069211 -0.039719270723 0.024824611079 -0.12766139157 -0.010774034633 0.002648179303 
radius 1 2 double
0.8 0.8 
