# vtk DataFile Version 5.1
Generated by LIGGGHTS
ASCII
DATASET POLYDATA
POINTS 2 float
0.23946 1.33844 -0.261344 0.0197879 -0.204769 0.0820915 
VERTICES 3 2
OFFSETS vtktypeint64
0 1 2 
CONNECTIVITY vtktypeint64
0 1 
POINT_DATA 2
FIELD FieldData 4
id 1 2 int
2 1 
type 1 2 int
1 1 
v 3 2 double
0.34024485692 0.11184573693 0.18815834101 -0.10283286888 0.088138456267 0.13872399883 
radius 1 2 double
0.8 0.8 
