# vtk DataFile Version 5.1
Generated by LIGGGHTS
ASCII
DATASET POLYDATA
POINTS 2 float
0.245845 1.26585 -0.245856 -0.200364 -0.202449 0.200298 
VERTICES 3 2
OFFSETS vtktypeint64
0 1 2 
CONNECTIVITY vtktypeint64
0 1 
POINT_DATA 2
FIELD FieldData 4
id 1 2 int
2 1 
type 1 2 int
1 1 
v 3 2 double
5.2462096701e-14 1.0736393224e-13 -5.2181722406e-14 -3.0189692237e-14 4.6690079399e-14 3.0308841278e-14 
radius 1 2 double
0.8 0.8 
