# vtk DataFile Version 5.1
Generated by LIGGGHTS
ASCII
DATASET POLYDATA
POINTS 2 float
0.245839 1.26584 -0.245851 -0.200363 -0.202456 0.200295 
VERTICES 3 2
OFFSETS vtktypeint64
0 1 2 
CONNECTIVITY vtktypeint64
0 1 
POINT_DATA 2
FIELD FieldData 4
id 1 2 int
2 1 
type 1 2 int
1 1 
v 3 2 double
0.00027704341624 0.00061517659502 -0.00029010742786 -0.00010912219738 0.00033736203226 0.00010462785559 
radius 1 2 double
0.8 0.8 
