# vtk DataFile Version 5.1
Generated by LIGGGHTS
ASCII
DATASET POLYDATA
POINTS 2 float
0.24583 1.26585 -0.245872 -0.200376 -0.20245 0.200283 
VERTICES 3 2
OFFSETS vtktypeint64
0 1 2 
CONNECTIVITY vtktypeint64
0 1 
POINT_DATA 2
FIELD FieldData 4
id 1 2 int
2 1 
type 1 2 int
1 1 
v 3 2 double
-0.001518842628 -0.0045064981034 0.0029181726903 -0.00030179561732 -0.0024801079807 -0.0018165158083 
radius 1 2 double
0.8 0.8 
