# vtk DataFile Version 5.1
Generated by LIGGGHTS
ASCII
DATASET POLYDATA
POINTS 2 float
0.253219 1.28632 -0.253301 -0.111283 -0.202422 0.200144 
VERTICES 3 2
OFFSETS vtktypeint64
0 1 2 
CONNECTIVITY vtktypeint64
0 1 
POINT_DATA 2
FIELD FieldData 4
id 1 2 int
2 1 
type 1 2 int
1 1 
v 3 2 double
-0.014866424124 -0.03895782841 0.014973026993 -0.19247604505 -4.1400159973e-05 -2.9070805896e-05 
radius 1 2 double
0.8 0.8 
