# vtk DataFile Version 5.1
Generated by LIGGGHTS
ASCII
DATASET POLYDATA
POINTS 2 float
0.214726 1.35813 -0.286651 0.0274288 -0.201494 0.0700785 
VERTICES 3 2
OFFSETS vtktypeint64
0 1 2 
CONNECTIVITY vtktypeint64
0 1 
POINT_DATA 2
FIELD FieldData 4
id 1 2 int
2 1 
type 1 2 int
1 1 
v 3 2 double
0.2474588769 -0.081653141094 0.35675823411 -0.077106642634 0.0032021718941 0.15468125923 
radius 1 2 double
0.8 0.8 
