# vtk DataFile Version 5.1
Generated by LIGGGHTS
ASCII
DATASET POLYDATA
POINTS 2 float
0.263985 1.31227 -0.263266 -0.0267938 -0.201742 0.160937 
VERTICES 3 2
OFFSETS vtktypeint64
0 1 2 
CONNECTIVITY vtktypeint64
0 1 
POINT_DATA 2
FIELD FieldData 4
id 1 2 int
2 1 
type 1 2 int
1 1 
v 3 2 double
-0.054160826497 -0.13666063304 0.074259116688 -0.12064020906 -0.044082767491 0.20788063023 
radius 1 2 double
0.8 0.8 
