# vtk DataFile Version 5.1
Generated by LIGGGHTS
ASCII
DATASET POLYDATA
POINTS 2 float
0.246799 1.26887 -0.24684 -0.189681 -0.202397 0.200154 
VERTICES 3 2
OFFSETS vtktypeint64
0 1 2 
CONNECTIVITY vtktypeint64
0 1 
POINT_DATA 2
FIELD FieldData 4
id 1 2 int
2 1 
type 1 2 int
1 1 
v 3 2 double
-0.023534098286 -0.066267684012 0.023670871651 -0.27144522482 4.0777274784e-05 1.4417151366e-05 
radius 1 2 double
0.8 0.8 
