# vtk DataFile Version 5.1
Generated by LIGGGHTS
ASCII
DATASET POLYDATA
POINTS 2 float
0.264608 1.31451 -0.264987 -0.0244318 -0.20126 0.156627 
VERTICES 3 2
OFFSETS vtktypeint64
0 1 2 
CONNECTIVITY vtktypeint64
0 1 
POINT_DATA 2
FIELD FieldData 4
id 1 2 int
2 1 
type 1 2 int
1 1 
v 3 2 double
-0.0059239633337 -0.071556677617 0.10202734363 -0.1209396755 0.0064092940581 0.21982003261 
radius 1 2 double
0.8 0.8 
