# vtk DataFile Version 5.1
Generated by LIGGGHTS
ASCII
DATASET POLYDATA
POINTS 2 float
0.245973 1.26611 -0.245807 -0.200359 -0.202525 0.19912 
VERTICES 3 2
OFFSETS vtktypeint64
0 1 2 
CONNECTIVITY vtktypeint64
0 1 
POINT_DATA 2
FIELD FieldData 4
id 1 2 int
2 1 
type 1 2 int
1 1 
v 3 2 double
0.0037411122711 0.0051835928979 -0.0012721041488 -0.0018915608091 0.0049436790458 0.016529362057 
radius 1 2 double
0.8 0.8 
