# vtk DataFile Version 5.1
Generated by LIGGGHTS
ASCII
DATASET POLYDATA
POINTS 2 float
0.256307 1.2945 -0.256484 -0.0665598 -0.202587 0.20016 
VERTICES 3 2
OFFSETS vtktypeint64
0 1 2 
CONNECTIVITY vtktypeint64
0 1 
POINT_DATA 2
FIELD FieldData 4
id 1 2 int
2 1 
type 1 2 int
1 1 
v 3 2 double
-0.0070133591853 -0.019057299625 0.0061127863389 -0.13988398092 0.00090290257524 -0.0023279641162 
radius 1 2 double
0.8 0.8 
