# vtk DataFile Version 5.1
Generated by LIGGGHTS
ASCII
DATASET POLYDATA
POINTS 2 float
0.245844 1.26585 -0.245855 -0.200364 -0.20245 0.200297 
VERTICES 3 2
OFFSETS vtktypeint64
0 1 2 
CONNECTIVITY vtktypeint64
0 1 
POINT_DATA 2
FIELD FieldData 4
id 1 2 int
2 1 
type 1 2 int
1 1 
v 3 2 double
-1.9790987686e-05 -4.2916935685e-05 1.9907520355e-05 7.694898934e-06 -2.50699938e-05 -7.6550383428e-06 
radius 1 2 double
0.8 0.8 
