# vtk DataFile Version 5.1
Generated by LIGGGHTS
ASCII
DATASET POLYDATA
POINTS 2 float
0.264569 1.31466 -0.266498 -0.0206659 -0.202377 0.150181 
VERTICES 3 2
OFFSETS vtktypeint64
0 1 2 
CONNECTIVITY vtktypeint64
0 1 
POINT_DATA 2
FIELD FieldData 4
id 1 2 int
2 1 
type 1 2 int
1 1 
v 3 2 double
-0.013456387767 0.0033715072436 -0.08527666792 -0.13042406537 0.032919274516 0.21307613206 
radius 1 2 double
0.8 0.8 
