# vtk DataFile Version 5.1
Generated by LIGGGHTS
ASCII
DATASET POLYDATA
POINTS 2 float
0.149374 1.46025 -0.174552 0.0459365 -0.201158 0.0329506 
VERTICES 3 2
OFFSETS vtktypeint64
0 1 2 
CONNECTIVITY vtktypeint64
0 1 
POINT_DATA 2
FIELD FieldData 4
id 1 2 int
2 1 
type 1 2 int
1 1 
v 3 2 double
0.12678248158 -1.519269252 -0.25433442866 -0.03766374282 -0.01082477042 0.075556073612 
radius 1 2 double
0.8 0.8 
