# vtk DataFile Version 5.1
Generated by LIGGGHTS
ASCII
DATASET POLYDATA
POINTS 2 float
0.267963 1.32235 -0.253217 -0.0118149 -0.202516 0.134895 
VERTICES 3 2
OFFSETS vtktypeint64
0 1 2 
CONNECTIVITY vtktypeint64
0 1 
POINT_DATA 2
FIELD FieldData 4
id 1 2 int
2 1 
type 1 2 int
1 1 
v 3 2 double
-0.067273609642 -0.14024841277 -0.14908782861 -0.11651728755 -0.019162739301 0.20586406169 
radius 1 2 double
0.8 0.8 
