# vtk DataFile Version 5.1
Generated by LIGGGHTS
ASCII
DATASET POLYDATA
POINTS 2 float
0.245925 1.26606 -0.24583 -0.200363 -0.202578 0.198773 
VERTICES 3 2
OFFSETS vtktypeint64
0 1 2 
CONNECTIVITY vtktypeint64
0 1 
POINT_DATA 2
FIELD FieldData 4
id 1 2 int
2 1 
type 1 2 int
1 1 
v 3 2 double
-0.0044747406895 -0.0043829673244 0.0040779488799 0.00088000408192 -0.0043059801923 0.007354160577 
radius 1 2 double
0.8 0.8 
