# vtk DataFile Version 5.1
Generated by LIGGGHTS
ASCII
DATASET POLYDATA
POINTS 2 float
0.245845 1.26585 -0.245856 -0.200364 -0.202449 0.200298 
VERTICES 3 2
OFFSETS vtktypeint64
0 1 2 
CONNECTIVITY vtktypeint64
0 1 
POINT_DATA 2
FIELD FieldData 4
id 1 2 int
2 1 
type 1 2 int
1 1 
v 3 2 double
-3.5551882503e-16 -5.0884331599e-16 1.8154950883e-16 3.7365035664e-17 -2.6493280727e-16 -1.6993025963e-16 
radius 1 2 double
0.8 0.8 
