# vtk DataFile Version 5.1
Generated by LIGGGHTS
ASCII
DATASET POLYDATA
POINTS 2 float
0.245849 1.2659 -0.2459 -0.200365 -0.202423 0.200315 
VERTICES 3 2
OFFSETS vtktypeint64
0 1 2 
CONNECTIVITY vtktypeint64
0 1 
POINT_DATA 2
FIELD FieldData 4
id 1 2 int
2 1 
type 1 2 int
1 1 
v 3 2 double
-0.0021487587002 -0.0042485616378 0.002383170618 -0.0017131677917 -0.0027752105364 -0.0044908882446 
radius 1 2 double
0.8 0.8 
