# vtk DataFile Version 5.1
Generated by LIGGGHTS
ASCII
DATASET POLYDATA
POINTS 2 float
0.104999 1.39106 -0.0855328 0.0590279 -0.203619 0.00668836 
VERTICES 3 2
OFFSETS vtktypeint64
0 1 2 
CONNECTIVITY vtktypeint64
0 1 
POINT_DATA 2
FIELD FieldData 4
id 1 2 int
2 1 
type 1 2 int
1 1 
v 3 2 double
0.12760399906 1.9731351569 -0.25598244956 -0.036579280746 1.1117176854 0.07338056767 
radius 1 2 double
0.8 0.8 
