# vtk DataFile Version 5.1
Generated by LIGGGHTS
ASCII
DATASET POLYDATA
POINTS 2 float
0.245845 1.26585 -0.245856 -0.200364 -0.202449 0.200298 
VERTICES 3 2
OFFSETS vtktypeint64
0 1 2 
CONNECTIVITY vtktypeint64
0 1 
POINT_DATA 2
FIELD FieldData 4
id 1 2 int
2 1 
type 1 2 int
1 1 
v 3 2 double
1.5961751853e-09 3.4552988881e-09 -1.596215212e-09 -6.1183725752e-10 1.9757160826e-09 6.1184589258e-10 
radius 1 2 double
0.8 0.8 
