# vtk DataFile Version 5.1
Generated by LIGGGHTS
ASCII
DATASET POLYDATA
POINTS 2 float
0.245845 1.26585 -0.245856 -0.200364 -0.202449 0.200298 
VERTICES 3 2
OFFSETS vtktypeint64
0 1 2 
CONNECTIVITY vtktypeint64
0 1 
POINT_DATA 2
FIELD FieldData 4
id 1 2 int
2 1 
type 1 2 int
1 1 
v 3 2 double
-3.2648100885e-13 -6.7633106899e-13 3.2979877708e-13 1.874849623e-13 -2.9991567601e-13 -1.8617600194e-13 
radius 1 2 double
0.8 0.8 
