# vtk DataFile Version 5.1
Generated by LIGGGHTS
ASCII
DATASET POLYDATA
POINTS 2 float
0.204608 1.36704 -0.285355 0.0305132 -0.20089 0.0638909 
VERTICES 3 2
OFFSETS vtktypeint64
0 1 2 
CONNECTIVITY vtktypeint64
0 1 
POINT_DATA 2
FIELD FieldData 4
id 1 2 int
2 1 
type 1 2 int
1 1 
v 3 2 double
0.27363463936 -0.63605479836 -0.54893001614 -0.077118247066 -0.0094385628015 0.15470453853 
radius 1 2 double
0.8 0.8 
