# vtk DataFile Version 5.1
Generated by LIGGGHTS
ASCII
DATASET POLYDATA
POINTS 2 float
0.247937 1.27205 -0.247984 -0.176428 -0.2024 0.200152 
VERTICES 3 2
OFFSETS vtktypeint64
0 1 2 
CONNECTIVITY vtktypeint64
0 1 
POINT_DATA 2
FIELD FieldData 4
id 1 2 int
2 1 
type 1 2 int
1 1 
v 3 2 double
-0.02203035168 -0.061239589958 0.022160070891 -0.25873814814 6.6437772182e-05 2.5709100146e-05 
radius 1 2 double
0.8 0.8 
