# vtk DataFile Version 5.1
Generated by LIGGGHTS
ASCII
DATASET POLYDATA
POINTS 2 float
0.161225 1.35051 -0.198327 0.0426102 -0.214128 0.0396236 
VERTICES 3 2
OFFSETS vtktypeint64
0 1 2 
CONNECTIVITY vtktypeint64
0 1 
POINT_DATA 2
FIELD FieldData 4
id 1 2 int
2 1 
type 1 2 int
1 1 
v 3 2 double
0.23320604071 0.11505886744 -0.46782745046 -0.062787340885 -0.017082958293 0.12595574934 
radius 1 2 double
0.8 0.8 
