LIGGGHTS (Version LIGGGHTS-PUBLIC 3.8.0, compiled 2024-03-31-20:10:17 by buildd, git commit unknown)
Reading data file ...
  orthogonal box = (-1 -1 -1) to (1 7 1)
  1 by 1 by 1 MPI processor grid
  100 atoms

Reading STL file 'wall.stl' (mesh processing step 1/3) 
Setting up run at Sun Mar 15 12:26:25 2026

Mesh cad: 1 elements have high aspect ratio (soft limit: smallest angle > 0.500000 ° required)
WARNING: Fix mesh: Mesh contains highly skewed element, moving mesh (if used) will not parallelize well (./src/surface_mesh_I.h:657)
WARNING: Mesh cad: proc 0 has 1 element pairs that are coplanar, share an edge and overlap (but are not duplicate)
Import and parallelization of mesh cad containing 2498 triangle(s) successful
Memory usage per processor = 14.4494 Mbytes
    Step    Atoms         KinEng            CPU 
       0      100              0              0 
    1000      100    0.054420232    0.007058688 
    2000      100     0.21768093    0.020137734 
    3000      100     0.48978209    0.037681294 
    4000      100     0.87072372    0.057692071 
    5000      100      1.3605058    0.080180858 
    6000      100      1.9591284      0.1062581 
    7000      100      2.6665914     0.13553262 
    8000      100      3.4828949      0.1695652 
    9000      100      4.4080388     0.20336193 
   10000      100      5.4420232     0.24256627 
   11000      100      6.5848481     0.28289385 
   12000      100      7.8365135     0.32972787 
   13000      100      9.1970193     0.37910406 
   14000      100      10.666366     0.43047524 
   15000      100      12.244552     0.48418714 
   16000      100       13.93158     0.54330875 
   17000      100      15.727447     0.60496523 
   18000      100      17.632155     0.66754112 
   19000      100      19.645704      0.7316896 
   20000      100      21.768093     0.80491673 
   21000      100      23.999323     0.87492109 
   22000      100      26.339393     0.95309853 
   23000      100      28.788303      1.0317131 
   24000      100      31.346054      1.1128576 
   25000      100      34.012645      1.2007054 
   26000      100      36.788077      1.2927628 
   27000      100      39.672349      1.3830453 
   28000      100      42.665462      1.4785328 
   29000      100      45.767415      1.5731374 
   30000      100      48.978209      1.6705384 
   31000      100      52.297843      1.7732256 
   32000      100      55.726318      1.8763106 
   33000      100      59.263633      1.9884868 
   34000      100      62.909789      2.0996639 
   35000      100      66.277962      2.2192572 
   36000      100      69.049875      2.3360574 
   37000      100      72.791904      2.4540365 
   38000      100      75.808685      2.5804715 
   39000      100      79.208791      2.7034278 
   40000      100      81.961098      2.8372842 
   41000      100      85.122736      2.9697396 
   42000      100      85.052466      3.1070107 
   43000      100      85.285258       3.249974 
   44000      100      85.750777      3.3984094 
   45000      100      85.600516      3.5466332 
   46000      100      82.328647      3.6958181 
   47000      100      80.270073      3.8561995 
   48000      100      78.210866      4.0182012 
   49000      100      74.346811      4.1843518 
   50000      100      72.587327      4.3518541 
   51000      100      66.218046      4.5129411 
   52000      100        60.0046      4.6940098 
   53000      100      53.806631      4.8773178 
   54000      100      41.697165      5.0574382 
   55000      100      31.419719      5.2473005 
   56000      100      22.146911      5.4321892 
   57000      100      14.205691      5.6041169 
   58000      100      9.0320235      5.7511138 
   59000      100      7.4612358      5.8624106 
   60000      100      6.4482842      5.9628991 
   61000      100      5.2062679      6.0435824 
   62000      100      5.0572522      6.1206351 
   63000      100      5.2261786      6.1958769 
   64000      100      5.2667205      6.2779935 
   65000      100      4.9762049      6.3624457 
   66000      100      4.9864564      6.4468011 
   67000      100      4.5065259      6.5324137 
   68000      100       4.465362      6.6211758 
   69000      100      4.1868898      6.7131249 
   70000      100      3.9909083      6.8091827 
   71000      100      3.7956533      6.8952476 
   72000      100      3.8696269      6.9821801 
   73000      100      3.9081851      7.0693968 
   74000      100      3.6791586      7.1569784 
   75000      100      3.7976218      7.2448471 
   76000      100      3.8993974      7.3363347 
   77000      100      4.0278371      7.4311352 
   78000      100       3.741368      7.5218128 
   79000      100       3.854266      7.5995493 
   80000      100      3.7841093      7.6759456 
   81000      100      3.7853881      7.7571316 
   82000      100       3.602233       7.837483 
   83000      100      3.4876329      7.9181518 
   84000      100      3.3730456      8.0034177 
   85000      100      3.4334491      8.0847374 
   86000      100      3.6687043      8.1709543 
   87000      100       3.687175      8.2576384 
   88000      100      3.7603979      8.3394613 
   89000      100      3.5227609      8.4160128 
   90000      100      3.3993635      8.4909437 
   91000      100      3.3715179      8.5690263 
   92000      100      3.3053996      8.6492019 
   93000      100      3.3885171      8.7292698 
   94000      100      3.2236794      8.8102114 
   95000      100      3.1406175      8.8927772 
   96000      100      3.2162777      8.9803041 
   97000      100      3.2023658      9.0622659 
   98000      100      3.0593208      9.1438719 
   99000      100      3.1421061      9.2297842 
  100000      100      3.1800937      9.3136487 
  101000      100      3.0915976      9.4004847 
  102000      100      3.1636426      9.4870622 
  103000      100      3.3001386       9.576144 
  104000      100      3.3685656      9.6647344 
  105000      100      3.2847657      9.7522517 
  106000      100      3.2921706      9.8369692 
  107000      100      3.2596581      9.9254996 
  108000      100      3.2074437      10.016817 
  109000      100      3.2058288      10.113288 
  110000      100       3.272114      10.207256 
  111000      100      3.2775688      10.301127 
  112000      100      3.3045184       10.39436 
  113000      100      3.1622922      10.489832 
  114000      100      3.1895895       10.58255 
  115000      100      3.1898347       10.67713 
  116000      100      3.2583302      10.771555 
  117000      100      3.2644707       10.86613 
  118000      100       3.193113      10.960227 
  119000      100      3.1756198      11.053763 
  120000      100      3.1959734      11.149599 
  121000      100      3.2403794      11.246137 
  122000      100       3.179797      11.339235 
  123000      100       3.162571      11.434902 
  124000      100      3.2163595      11.531129 
  125000      100      3.2420531      11.630598 
  126000      100      3.2146784      11.727982 
  127000      100      3.1729808      11.822938 
  128000      100      3.1822444      11.917956 
  129000      100      3.0630421      12.014365 
  130000      100      3.0640055      12.107034 
  131000      100      3.0671517      12.201728 
  132000      100      3.0888727      12.296742 
  133000      100      3.0811135      12.391162 
  134000      100      3.0941504      12.484838 
  135000      100      3.1043565      12.578432 
  136000      100      3.1409711      12.670046 
  137000      100      3.1474808      12.764344 
  138000      100       3.139884      12.856624 
  139000      100      3.1770191       12.95021 
  140000      100       3.207605      13.040732 
  141000      100      3.2525928      13.132941 
  142000      100      3.2636207      13.224624 
  143000      100      3.3026503      13.319849 
  144000      100       3.330496      13.411846 
  145000      100      3.3765972      13.505697 
  146000      100      3.4355785      13.600323 
  147000      100      3.4612359      13.693512 
  148000      100      3.4917355      13.785622 
  149000      100      3.5449834      13.881078 
  150000      100      3.5304432      13.977041 
  151000      100      3.5810946      14.073615 
  152000      100      3.6414087      14.167572 
  153000      100      3.6991086      14.264318 
  154000      100      3.7503134      14.360694 
  155000      100      3.7952254      14.461465 
  156000      100      3.8583843      14.559684 
  157000      100      3.8753431      14.659564 
  158000      100      3.9373784       14.75824 
  159000      100      3.9670137      14.875892 
  160000      100      4.0207377      14.998133 
  161000      100      4.0041494      15.104144 
  162000      100      3.9916074       15.20898 
  163000      100      4.0241747      15.311345 
  164000      100      4.0056687      15.410754 
  165000      100      4.0550729      15.508074 
  166000      100      4.0974253      15.610447 
  167000      100       4.141059      15.715289 
  168000      100      4.1806856      15.816682 
  169000      100      4.2173699      15.919951 
  170000      100      4.2584638      16.024419 
  171000      100      4.2998101      16.130227 
  172000      100      4.3496475      16.235054 
  173000      100      4.3920113      16.340404 
  174000      100      4.4458452       16.47089 
  175000      100      4.4766045      16.592572 
  176000      100      4.4038995      16.706809 
  177000      100      4.4209172      16.822974 
  178000      100      4.4422085      16.928788 
  179000      100      4.4567222      17.033654 
  180000      100      4.4951811      17.138503 
  181000      100       4.519156      17.246547 
  182000      100      4.5081669      17.351338 
  183000      100      4.5687197      17.460187 
  184000      100      4.5829599      17.562097 
  185000      100      4.6490607       17.66296 
  186000      100      4.7184037      17.770791 
  187000      100      4.7695598      17.876667 
  188000      100        4.79636      17.982093 
  189000      100      4.7575128      18.136554 
  190000      100      4.7795619      18.250774 
  191000      100      4.8256239      18.359998 
  192000      100      4.8480857      18.472814 
  193000      100      4.8727377      18.594987 
  194000      100      4.9251557      18.712991 
  195000      100      4.9692051      18.827181 
  196000      100      5.0169521        18.9405 
  197000      100       5.045672      19.056257 
  198000      100      5.0243834      19.161545 
  199000      100       5.086563      19.267625 
  200000      100      5.1416941      19.376332 
  201000      100      5.1918969       19.48369 
  202000      100      5.2202093        19.5914 
  203000      100      5.2764499      19.704673 
  204000      100      5.2921508      19.809695 
  205000      100      5.3382601       19.91332 
  206000      100      5.3697024      20.017822 
  207000      100        5.42414        20.1242 
  208000      100       5.459769      20.226152 
  209000      100      5.5186687      20.333463 
  210000      100      5.5528334      20.439304 
  211000      100      5.5821329      20.541546 
  212000      100       5.595721      20.646363 
  213000      100      5.6064154      20.753188 
  214000      100      5.6625253      20.852393 
  215000      100       5.655356      20.952803 
  216000      100      5.6849845      21.052754 
  217000      100      5.7118563      21.154862 
  218000      100      5.7454108      21.254717 
  219000      100      5.8093142      21.354781 
  220000      100      5.8245889      21.456339 
  221000      100      5.8653197      21.558319 
  222000      100      5.9166142      21.658768 
  223000      100       6.012172      21.759066 
  224000      100      6.0643995      21.857091 
  225000      100      6.1159977      21.956439 
  226000      100       6.175174      22.055439 
  227000      100      6.2378453      22.152729 
  228000      100       6.279687       22.25397 
  229000      100      6.3352783      22.355051 
  230000      100        6.41985      22.454847 
  231000      100      6.4803482      22.557509 
  232000      100      6.5231144      22.662225 
  233000      100      6.5582294      22.761395 
  234000      100      6.6339351      22.863575 
  235000      100       6.682805      22.966111 
  236000      100      6.7245749      23.065684 
  237000      100      6.8005358      23.167981 
  238000      100      6.8249919      23.268934 
  239000      100      6.8704923      23.374127 
  240000      100       6.914727      23.473089 
  241000      100      6.8785486      23.576363 
  242000      100      6.8623191      23.679841 
  243000      100      6.8700334      23.782888 
  244000      100      6.9362765      23.889486 
  245000      100      6.9172495      24.000351 
  246000      100      6.9621642      24.105036 
  247000      100      6.9303269      24.208673 
  248000      100      6.9519559      24.311854 
  249000      100      6.9854487      24.415605 
  250000      100      6.9982986      24.524967 
  251000      100      7.0397866        24.6276 
  252000      100       7.101473      24.730303 
  253000      100      7.1354454       24.83714 
  254000      100      7.1331897      24.944758 
  255000      100      7.1808226      25.050249 
  256000      100      7.2393017      25.154375 
  257000      100      7.3200026      25.260503 
  258000      100      7.3610033      25.367896 
  259000      100      7.4390537      25.482158 
  260000      100       7.485532      25.592738 
  261000      100      7.5365329      25.702912 
  262000      100      7.5808886      25.807437 
  263000      100      7.5811027      25.922288 
  264000      100      7.6516218      26.032634 
  265000      100      7.7047544      26.145608 
  266000      100      7.6609597       26.25253 
  267000      100      7.6953906      26.364038 
  268000      100      7.7291726      26.471596 
  269000      100      7.7713067      26.577431 
  270000      100      7.8197114      26.688025 
  271000      100      7.8824875      26.798415 
  272000      100       7.929883      26.907166 
  273000      100      7.9578333      27.017159 
  274000      100      7.9669224       27.12386 
  275000      100      8.0533249      27.236333 
  276000      100      8.0743629      27.348568 
  277000      100      8.1589101      27.464696 
  278000      100      8.2674184      27.578368 
  279000      100      8.3195151      27.688588 
  280000      100      8.4292401      27.802988 
  281000      100      8.4790785       27.90945 
  282000      100      8.5075098      28.018064 
  283000      100      8.5506767      28.126059 
  284000      100      8.6008682      28.235406 
  285000      100      8.6933674      28.343178 
  286000      100      8.7459385      28.453681 
  287000      100      8.8330252      28.561382 
  288000      100      8.8908335      28.673551 
  289000      100      8.8986837      28.776217 
  290000      100      8.9335801      28.880419 
  291000      100      8.9914077      28.984239 
  292000      100      9.0673784      29.089502 
  293000      100      9.1127897      29.198027 
  294000      100      9.2155289       29.31028 
  295000      100      9.2803685      29.418506 
  296000      100        9.34162      29.523776 
  297000      100      9.3532725      29.631592 
  298000      100      9.3735272      29.738874 
  299000      100      9.3546639      29.843456 
  300000      100      9.3790963      29.943978 
  301000      100      9.4402417      30.045902 
  302000      100      9.3892074      30.150076 
  303000      100      9.4203522      30.251738 
  304000      100      9.4450282      30.356565 
  305000      100      9.5017118      30.459298 
  306000      100      9.4978986      30.562264 
  307000      100      9.5452642      30.665807 
  308000      100      9.6188319      30.773075 
  309000      100      9.6256271      30.883183 
  310000      100      9.6574774      30.996069 
  311000      100      9.7152053      31.101273 
  312000      100      9.7277172      31.203104 
  313000      100      9.7483682      31.310472 
  314000      100      9.7909292      31.417064 
  315000      100       9.811943      31.527704 
  316000      100      9.8214051       31.63501 
  317000      100      9.8458174      31.742296 
  318000      100      9.9015118      31.850013 
  319000      100      9.9476325      31.955303 
  320000      100      10.025983      32.061265 
  321000      100      10.110784      32.165319 
  322000      100      10.130492      32.267191 
  323000      100      10.197455      32.372818 
  324000      100      10.229901      32.478765 
  325000      100      10.272971       32.58688 
  326000      100      10.302411      32.697248 
  327000      100      10.339033      32.806272 
  328000      100      10.378976      32.919339 
  329000      100      10.437074      33.028355 
  330000      100      10.506292       33.13918 
  331000      100      10.570933      33.244797 
  332000      100      10.649384       33.35235 
  333000      100      10.715521       33.45764 
  334000      100      10.734379      33.568723 
  335000      100      10.817645      33.681615 
  336000      100      10.861567      33.789088 
  337000      100      10.905846      33.895788 
  338000      100      10.969055      34.002244 
  339000      100      11.047367      34.109979 
  340000      100      10.996475       34.22129 
  341000      100      11.073598      34.331101 
  342000      100        11.1106      34.444041 
  343000      100      11.190299       34.55309 
  344000      100      11.206813      34.663824 
  345000      100      11.163899      34.775489 
  346000      100      11.211792       34.88135 
  347000      100      11.269898      34.988847 
  348000      100      11.295239      35.100499 
  349000      100      11.371499      35.211218 
  350000      100      11.401224      35.321463 
  351000      100      11.472748      35.429144 
  352000      100      11.550722      35.537107 
  353000      100      11.628805      35.646551 
  354000      100      11.676354      35.753426 
  355000      100      11.739954      35.862169 
  356000      100      11.836608      35.973179 
  357000      100      11.892044      36.087601 
  358000      100      11.935505      36.197383 
  359000      100       12.00435      36.305121 
  360000      100      12.025335      36.414984 
  361000      100      12.104635      36.520917 
  362000      100      12.206015      36.628829 
  363000      100      12.290586       36.73847 
  364000      100      12.397598      36.850631 
  365000      100      12.470756      36.957497 
  366000      100      12.497249      37.066344 
  367000      100      12.524825      37.173439 
  368000      100      12.576178      37.276116 
  369000      100      12.659533      37.380164 
  370000      100      12.736246      37.481002 
  371000      100      12.708477      37.582913 
  372000      100      12.715611       37.68981 
  373000      100      12.765536      37.796833 
  374000      100      12.813339      37.901577 
  375000      100      12.900196      38.010689 
  376000      100      12.996014      38.115159 
  377000      100      12.983954      38.219849 
  378000      100      13.023962      38.323073 
  379000      100      13.085009      38.428882 
  380000      100      13.129406      38.532697 
  381000      100      13.144249       38.63554 
  382000      100      13.192115      38.737836 
  383000      100      13.221925      38.841975 
  384000      100      13.253346      38.942814 
  385000      100       13.31531      39.048003 
  386000      100      13.350015      39.149762 
  387000      100      13.390864      39.252303 
  388000      100      13.497323      39.354395 
  389000      100       13.61403      39.458357 
  390000      100      13.702666      39.565523 
  391000      100      13.670023      39.672815 
  392000      100      13.698492      39.776389 
  393000      100      13.761833      39.879085 
  394000      100      13.737218      39.982469 
  395000      100      13.734573      40.086507 
  396000      100      13.772719      40.192289 
  397000      100      13.769338       40.29662 
  398000      100      13.705536      40.403664 
  399000      100      13.753369      40.509367 
  400000      100      13.785572      40.618096 
  401000      100      13.699965      40.721823 
  402000      100      13.700411      40.825932 
  403000      100      13.753033      40.927913 
  404000      100      13.807046      41.033791 
  405000      100      13.780698      41.140256 
  406000      100       13.83183      41.245019 
  407000      100      13.877673      41.354252 
  408000      100      13.926583      41.461358 
  409000      100      14.031115      41.568426 
  410000      100      14.080154      41.673115 
  411000      100      14.111555      41.778332 
  412000      100      14.141856      41.890252 
  413000      100      14.221988      41.998643 
  414000      100        14.2638       42.10745 
  415000      100      14.242924      42.217977 
  416000      100      14.219965      42.326913 
  417000      100      14.319999      42.435262 
  418000      100      14.321458      42.541879 
  419000      100      14.370017      42.651988 
  420000      100      14.390911      42.766628 
  421000      100      14.481886      42.892012 
  422000      100      14.458946      43.004554 
  423000      100      14.469542      43.113523 
  424000      100       14.52015      43.221175 
  425000      100      14.596419      43.331928 
  426000      100       14.72001      43.442164 
  427000      100      14.723812      43.557468 
  428000      100      14.734357      43.668412 
  429000      100      14.772567      43.778725 
  430000      100      14.906948      43.886218 
  431000      100      14.987624      43.994222 
  432000      100      15.030417      44.107281 
  433000      100      15.130519      44.217108 
  434000      100      15.257653      44.327632 
  435000      100      15.238335       44.43537 
  436000      100      15.292466      44.549226 
  437000      100      15.356067      44.661572 
  438000      100      15.456857      44.772704 
  439000      100      15.537462       44.89195 
  440000      100       15.59164      45.001203 
  441000      100      15.664553      45.112305 
  442000      100      15.780112       45.23046 
  443000      100      15.777336      45.349355 
  444000      100      15.782354      45.465096 
  445000      100       15.80658      45.581309 
  446000      100      15.789493      45.691973 
  447000      100      15.876152      45.804423 
  448000      100      15.958798      45.915279 
  449000      100      15.978776      46.026361 
  450000      100      15.959686      46.134708 
  451000      100      16.043402      46.237583 
  452000      100      16.106194      46.344229 
  453000      100      16.122115      46.455723 
  454000      100      16.066567      46.563329 
  455000      100      16.062571       46.67308 
  456000      100       16.10714      46.778525 
  457000      100       16.17748      46.883267 
  458000      100      16.292333      46.991422 
  459000      100      16.238102      47.100285 
  460000      100      16.253905      47.211899 
  461000      100      16.262621        47.3148 
  462000      100      16.323312      47.418913 
  463000      100      16.320123      47.531147 
  464000      100      16.337765       47.64287 
  465000      100      16.442847       47.75417 
  466000      100      16.534452      47.863257 
  467000      100       16.59053      47.970405 
  468000      100      16.640941      48.074677 
  469000      100      16.722424      48.179639 
  470000      100      16.748879      48.279175 
  471000      100      16.737772      48.380854 
  472000      100      16.743063      48.481061 
  473000      100      16.775269      48.588659 
  474000      100      16.875786      48.690304 
  475000      100      16.859261      48.794888 
  476000      100      16.910575      48.896875 
  477000      100      16.993663      49.001587 
  478000      100      16.954053      49.108019 
  479000      100       17.00795      49.216104 
  480000      100      17.035831      49.320543 
  481000      100      17.090006       49.42843 
  482000      100      17.148184      49.537087 
  483000      100      17.222621      49.642828 
  484000      100      17.319526      49.748136 
  485000      100      17.452087      49.854815 
  486000      100      17.587997       49.96245 
  487000      100      17.552321      50.069045 
  488000      100      17.655629      50.176522 
  489000      100      17.707321      50.282838 
  490000      100      17.842752      50.387135 
  491000      100      17.906436       50.49154 
  492000      100      18.017823      50.599368 
  493000      100      18.077501      50.705766 
  494000      100      18.084987      50.807417 
  495000      100      18.137733      50.912064 
  496000      100      18.207956      51.021506 
  497000      100      18.260859      51.131664 
  498000      100       18.36631      51.247952 
  499000      100      18.455772       51.35793 
  500000      100      18.449853      51.463312 
  501000      100      18.522963      51.568816 
  502000      100      18.596992      51.678427 
  503000      100      18.632582      51.786427 
  504000      100      18.712653      51.888911 
  505000      100      18.791769      51.993106 
  506000      100      18.795859      52.097554 
  507000      100       18.83745       52.19968 
  508000      100      18.823307      52.309986 
  509000      100      18.893206      52.416003 
  510000      100      19.008288      52.524053 
  511000      100      19.067458      52.629542 
  512000      100      19.099168      52.737832 
  513000      100      19.190879      52.844495 
  514000      100      19.199846      52.948487 
  515000      100      19.239939      53.053777 
  516000      100      19.193856      53.158833 
  517000      100      19.314154      53.263016 
  518000      100      19.310837      53.370914 
  519000      100      19.303952       53.47517 
  520000      100      19.286143       53.57795 
  521000      100      19.209851      53.679951 
  522000      100      19.260467      53.783074 
  523000      100      19.262221      53.888449 
  524000      100      19.295962      53.997562 
  525000      100      19.342939      54.098026 
  526000      100      19.327149       54.20584 
  527000      100      19.362308      54.308693 
  528000      100      19.371175      54.411866 
  529000      100      19.394676      54.520576 
  530000      100      19.458413      54.623227 
  531000      100      19.508505       54.72692 
  532000      100      19.595567      54.831653 
  533000      100      19.603932      54.932599 
  534000      100      19.719809      55.041635 
  535000      100      19.723298      55.147619 
  536000      100      19.748515      55.259465 
  537000      100        19.7993      55.375187 
  538000      100      19.931093      55.479094 
  539000      100      19.961964      55.589706 
  540000      100      19.989554      55.693571 
  541000      100      20.008035      55.796494 
  542000      100      19.962223      55.909728 
  543000      100      20.058394      56.014035 
  544000      100      19.995879      56.123581 
  545000      100      20.057083      56.227123 
  546000      100      20.160275      56.326843 
  547000      100      20.227608      56.429927 
  548000      100      20.204043      56.533408 
  549000      100      20.236464      56.646205 
  550000      100      20.151975      56.758764 
  551000      100      20.218349      56.865798 
  552000      100      20.193133      56.979533 
  553000      100      20.280479      57.089416 
  554000      100      20.365076      57.192984 
  555000      100        20.3688      57.296609 
  556000      100      20.325335      57.400554 
  557000      100      20.385768      57.498663 
  558000      100      20.490316      57.601611 
  559000      100      20.555476      57.704573 
  560000      100      20.632137      57.807255 
  561000      100      20.749744       57.91077 
  562000      100      20.730828      58.016675 
  563000      100      20.715388      58.122168 
  564000      100      20.743062      58.223971 
  565000      100      20.795706      58.324513 
  566000      100      20.843672      58.428122 
  567000      100      20.842264      58.530774 
  568000      100      20.775986      58.632569 
  569000      100      20.839651      58.741794 
  570000      100      20.791625      58.847266 
  571000      100      20.868377      58.948679 
  572000      100      20.821731      59.053283 
  573000      100      20.989477      59.154865 
  574000      100      21.002206      59.269647 
  575000      100      21.072461      59.376951 
  576000      100      21.051553       59.48371 
  577000      100      21.142963      59.591553 
  578000      100      21.252344      59.702624 
  579000      100      21.224433       59.81609 
  580000      100      21.396368      59.925513 
  581000      100      21.412223      60.032759 
  582000      100      21.413982      60.141961 
  583000      100      21.379534       60.24822 
  584000      100      21.458021      60.358013 
  585000      100       21.49788      60.467315 
  586000      100      21.489508       60.57681 
  587000      100      21.599664      60.687289 
  588000      100      21.679039      60.792595 
  589000      100      21.778132      60.903191 
  590000      100      21.783506      61.016462 
  591000      100      21.875602      61.121549 
  592000      100      21.975891      61.231194 
  593000      100       21.99444      61.335635 
  594000      100      22.124236      61.443359 
  595000      100      22.147219      61.562632 
  596000      100      22.169463      61.687691 
  597000      100      22.203826      61.797776 
  598000      100      22.261696      61.917426 
  599000      100      22.226405      62.040117 
  600000      100      22.230847      62.160718 
  601000      100      22.336501       62.27666 
  602000      100      22.300781      62.395017 
  603000      100       22.20174      62.500181 
  604000      100      22.253908      62.605149 
  605000      100       22.14686      62.710174 
  606000      100      22.166714      62.821125 
  607000      100      22.233833       62.93398 
  608000      100      22.165752      63.039302 
  609000      100      22.242292       63.14745 
  610000      100      22.244324      63.269935 
  611000      100      22.245498      63.389366 
  612000      100      22.334479       63.50719 
  613000      100      22.428727      63.625514 
  614000      100      22.522299      63.745323 
  615000      100      22.555521      63.867776 
  616000      100      22.465079      63.992554 
  617000      100      22.544943      64.110072 
  618000      100      22.565021      64.219222 
  619000      100      22.568577      64.331264 
  620000      100      22.576694      64.435814 
  621000      100      22.605004      64.542626 
  622000      100      22.633023        64.6446 
  623000      100      22.707999      64.744982 
  624000      100      22.723992      64.849006 
  625000      100      22.712956      64.954426 
  626000      100      22.690715      65.066304 
  627000      100       22.75081      65.166452 
  628000      100      22.781989       65.26956 
  629000      100      22.756764       65.37715 
  630000      100      22.787351      65.495301 
  631000      100       22.76705      65.607855 
  632000      100      22.712132      65.717019 
  633000      100      22.748391      65.819554 
  634000      100      22.722921      65.927402 
  635000      100      22.668131      66.036173 
  636000      100      22.735691      66.151332 
  637000      100      22.774655       66.26213 
  638000      100      22.738616      66.368315 
  639000      100      22.824118      66.473647 
  640000      100      22.954355      66.593588 
  641000      100      23.085332      66.714749 
  642000      100      23.086171      66.834577 
  643000      100      23.147708      66.956559 
  644000      100       23.19526      67.081118 
  645000      100      23.206938      67.202678 
  646000      100      23.282273      67.324088 
  647000      100      23.437422      67.443111 
  648000      100      23.479151      67.554814 
  649000      100      23.457522      67.664279 
  650000      100      23.393337      67.773989 
  651000      100      23.475235      67.901647 
  652000      100      23.466829      68.029744 
  653000      100      23.490981      68.155669 
  654000      100      23.563205      68.275455 
  655000      100      23.658331      68.384976 
  656000      100      23.734825      68.500071 
  657000      100      23.798535      68.611821 
  658000      100      23.791142       68.72273 
  659000      100      23.908606      68.843416 
  660000      100      23.945002      68.952224 
  661000      100      23.991128       69.06193 
  662000      100      24.088344      69.171973 
  663000      100      24.173321      69.281336 
  664000      100      24.222289      69.393561 
  665000      100      24.179717        69.5207 
  666000      100      24.149496      69.637151 
  667000      100      24.223848      69.760086 
  668000      100      24.203631      69.881798 
  669000      100      24.188975      70.007284 
  670000      100       24.31917      70.143977 
  671000      100      24.259415      70.266999 
  672000      100      24.186794      70.389852 
  673000      100      24.185814      70.508043 
  674000      100      24.378486      70.628918 
  675000      100      24.333449      70.741234 
  676000      100      24.267062      70.856225 
  677000      100      24.252996      70.982112 
  678000      100       24.28272      71.106364 
  679000      100      24.370402      71.233968 
  680000      100      24.384259      71.353359 
  681000      100       24.38048       71.47696 
  682000      100      24.338294      71.599235 
  683000      100      24.381596      71.722658 
  684000      100      24.290169      71.847598 
  685000      100       24.38466      71.974713 
  686000      100      24.463958      72.095984 
  687000      100      24.494568      72.209811 
  688000      100      24.540884      72.321723 
  689000      100      24.604202      72.432002 
  690000      100      24.670248       72.55405 
  691000      100      24.698566      72.676061 
  692000      100       24.64662      72.792484 
  693000      100      24.613946      72.915807 
  694000      100      24.690625      73.033551 
  695000      100      24.716044      73.152044 
  696000      100      24.795197      73.272688 
  697000      100      24.749495      73.389641 
  698000      100      24.841338       73.50403 
  699000      100       24.89669      73.619066 
  700000      100      24.966788      73.736447 
  701000      100      24.977306      73.852467 
  702000      100      25.042374      73.965308 
  703000      100      25.051758       74.07975 
  704000      100      24.964521       74.19717 
  705000      100      25.038109      74.310566 
  706000      100       25.15561      74.432094 
  707000      100      25.169173      74.553738 
  708000      100      25.107818      74.676624 
  709000      100      25.189427      74.803334 
  710000      100      25.195327      74.933222 
  711000      100      25.120916       75.06171 
  712000      100       25.14661      75.189663 
  713000      100      25.177613      75.317357 
  714000      100      25.096872      75.451811 
  715000      100      25.175908      75.585885 
  716000      100      25.239439       75.72493 
  717000      100      25.221628      75.863254 
  718000      100      25.297269      76.003384 
  719000      100      25.426904      76.149561 
  720000      100      25.536277      76.298617 
  721000      100       25.55759      76.448648 
  722000      100      25.597038      76.606885 
  723000      100      25.533991      76.760687 
  724000      100      25.546481      76.916848 
  725000      100      25.637507       77.07421 
  726000      100      25.791046      77.236707 
  727000      100      25.823754      77.401709 
  728000      100      25.968299        77.5702 
  729000      100      26.044986       77.73464 
  730000      100      26.190125       77.91356 
  731000      100      26.186495      78.093397 
  732000      100      26.310735      78.272201 
  733000      100      26.491841      78.451084 
  734000      100      26.622684      78.639645 
  735000      100      26.760745      78.824492 
  736000      100      26.897079      78.998288 
  737000      100      26.952808      79.171468 
  738000       99      25.690992      79.347461 
  739000       99      25.763637      79.504388 
  740000       99      25.937777      79.665476 
  741000       99      26.000165      79.828156 
  742000       99      26.063168      80.022852 
  743000       99      26.140153      80.212334 
  744000       99      26.282691      80.411911 
  745000       99      26.387017       80.60341 
  746000       99      26.564173      80.786252 
  747000       99      26.702214      80.964901 
  748000       98      25.470289      81.121013 
  749000       98      25.631872      81.248215 
  750000       98      25.792528        81.3856 
  751000       98      25.809591      81.518942 
  752000       98      25.926155      81.653101 
  753000       98      26.026898      81.792466 
  754000       98      26.230315      81.934745 
  755000       98      26.303504      82.079517 
  756000       98      26.509043      82.220094 
  757000       98       26.67304      82.375388 
  758000       98      26.869849      82.523919 
  759000       98      27.020267      82.675886 
  760000       98      27.205227      82.831908 
  761000       98      27.408427      82.994893 
  762000       98      27.593881      83.152673 
  763000       98      27.832739      83.317575 
  764000       98      28.009925      83.482955 
  765000       98      28.222657      83.656701 
  766000       98      28.463078      83.831426 
  767000       98      28.664246      84.009353 
  768000       98      28.837451      84.183468 
  769000       97      27.765165      84.362294 
  770000       97       27.92851      84.533101 
  771000       97      28.024926       84.70506 
  772000       96      26.756348      84.876224 
  773000       96      26.964557      85.048192 
  774000       96      27.036588      85.221523 
  775000       95      25.812449      85.361831 
  776000       95      25.975501      85.532537 
  777000       95      26.136328      85.707917 
  778000       95      26.317233       85.86676 
  779000       95      26.405677      86.013975 
  780000       95      26.511722       86.17086 
  781000       95       26.74461      86.332027 
  782000       95      26.909294      86.494386 
  783000       95      27.128443      86.652928 
  784000       95      27.323943      86.806596 
  785000       95      27.508501      86.973744 
  786000       95      27.644731      87.146072 
  787000       95      27.812663      87.318091 
  788000       94      26.681107      87.493907 
  789000       94      26.944145      87.646341 
  790000       94      27.158548      87.805734 
  791000       94      27.290181      87.962983 
  792000       94      27.459865      88.131316 
  793000       94      27.703625       88.29222 
  794000       94      27.929167       88.46896 
  795000       94      28.174922      88.670767 
  796000       94      28.472446      88.946983 
  797000       94      28.657294      89.216156 
  798000       93      27.469918      89.496104 
  799000       93      27.582947      89.766884 
  800000       92       26.47371      90.029302 
  801000       92      26.604167      90.277688 
  802000       92      26.738188       90.54298 
  803000       92      26.985262      90.798529 
  804000       92      27.192299      91.057304 
  805000       91      26.141272       91.31491 
  806000       91      26.311802       91.56422 
  807000       91      26.506811      91.806736 
  808000       91      26.646819      92.053328 
  809000       91      26.910506      92.305686 
  810000       91      27.124349      92.556626 
  811000       90      25.963372      92.803952 
  812000       89      24.792079      93.058749 
  813000       89      25.012484       93.31562 
  814000       89      25.201467      93.566432 
  815000       89      25.374488      93.817997 
  816000       88      24.147724      94.072948 
  817000       88      24.300863      94.314741 
  818000       88      24.374156      94.578233 
  819000       87      23.236968      94.828665 
  820000       87      23.368533      95.045149 
  821000       87      23.530446      95.260811 
  822000       87      23.683131      95.478774 
  823000       87      23.981292      95.708947 
  824000       87      24.146999      95.946471 
  825000       87      24.379693      96.178397 
  826000       87        24.5203      96.413443 
  827000       87      24.696942      96.660398 
  828000       87      24.868059      96.908584 
  829000       87      24.949812       97.16769 
  830000       87       25.13105      97.408011 
  831000       86      24.033911        97.5836 
  832000       86      24.188451      97.735597 
  833000       86       24.35393      97.894126 
  834000       86       24.53155      98.056846 
  835000       86      24.700767      98.218428 
  836000       86      24.966097      98.378072 
  837000       86      25.234529      98.540009 
  838000       86      25.475128      98.708393 
  839000       86       25.67399      98.876947 
  840000       86       25.99285      99.049832 
  841000       85       24.90207      99.208332 
  842000       85      25.108404      99.364424 
  843000       85      25.335741      99.526686 
  844000       85      25.589744      99.696468 
  845000       85      25.844071      99.869934 
  846000       85      26.002135       100.0418 
  847000       84      25.012453      100.21373 
  848000       84      25.160982      100.39028 
  849000       84       25.50756      100.56199 
  850000       83      24.359114      100.72902 
  851000       83      24.506099      100.88692 
  852000       83      24.705598       101.0453 
  853000       83      24.991561       101.2086 
  854000       83      25.204003       101.3758 
  855000       83      25.536541      101.54264 
  856000       82      24.520268      101.71377 
  857000       82      24.827272      101.88816 
  858000       82      25.013694      102.06288 
  859000       81      23.865132      102.22866 
  860000       81      24.201199      102.38158 
  861000       81      24.394569      102.54412 
  862000       81       24.69114       102.7172 
  863000       81      24.996944      102.88784 
  864000       81      25.286422      103.05532 
  865000       80      24.234808      103.21959 
  866000       80      24.513632      103.37091 
  867000       80      24.887091      103.53026 
  868000       80      25.133089      103.69701 
  869000       80       25.43866      103.86423 
  870000       80      25.762669      104.03552 
  871000       80      26.014572      104.20621 
  872000       79      24.983536      104.37546 
  873000       78      23.838052      104.53708 
  874000       78      24.103914      104.69338 
  875000       78      24.328054      104.84583 
  876000       78      24.582187       105.0006 
  877000       78      24.901102      105.16365 
  878000       78      25.154752      105.33013 
  879000       78      25.460368      105.50376 
  880000       77      24.407521      105.67063 
  881000       76      23.341292      105.84054 
  882000       75      22.351291      106.00323 
  883000       75      22.558728      106.16337 
  884000       75      22.764953      106.32664 
  885000       75      23.014272      106.49518 
  886000       75      23.173851      106.66267 
  887000       75      23.426918      106.82998 
  888000       74      22.332536      106.99467 
  889000       73      21.231865      107.14928 
  890000       73      21.431876      107.30034 
  891000       73      21.649949      107.45043 
  892000       73      21.829008      107.61369 
  893000       73      22.073804      107.77474 
  894000       73      22.246923      107.93794 
  895000       73      22.564998      108.10406 
  896000       72      21.427162      108.25739 
  897000       72      21.733618      108.40895 
  898000       72      21.961982      108.57328 
  899000       72      22.148024        108.736 
  900000       72       22.40371      108.89976 
  901000       71      21.352364      109.06375 
  902000       71      21.574954       109.2282 
  903000       71      21.812376      109.39359 
  904000       70      20.681697      109.54237 
  905000       70       20.90067      109.70419 
  906000       70      21.152715      109.86926 
  907000       70      21.417666      110.03237 
  908000       70      21.750013       110.1961 
  909000       69      20.627941      110.35539 
  910000       69      20.894285      110.50857 
  911000       69      21.159937       110.6622 
  912000       69      21.410903      110.82323 
  913000       69      21.674599      110.98706 
  914000       69      21.974991      111.14872 
  915000       68      20.936825       111.3133 
  916000       68      21.212293      111.47448 
  917000       68      21.508034      111.63614 
  918000       67      20.467365      111.79994 
  919000       67      20.657099      111.96151 
  920000       67      20.856499      112.12424 
  921000       67      21.187468      112.28592 
  922000       66      20.029794      112.44822 
  923000       66      20.280693      112.60152 
  924000       66      20.567883      112.75481 
  925000       66      20.816099      112.92153 
  926000       66      21.031972      113.08737 
  927000       66      21.255219       113.2499 
  928000       65      20.174277      113.40399 
  929000       65      20.311201      113.56209 
  930000       65      20.542107      113.72564 
  931000       65      20.765872      113.88845 
  932000       65      20.974523      114.05241 
  933000       64      19.838617      114.21931 
  934000       63      18.638915      114.37156 
  935000       63        18.8596      114.50977 
  936000       63      19.039581      114.65082 
  937000       63      19.215921      114.79972 
  938000       63      19.461785      114.94835 
  939000       63      19.556748      115.09516 
  940000       63       19.79577      115.24788 
  941000       63      19.986808      115.40353 
  942000       63      20.083526      115.56512 
  943000       63      20.312805      115.73352 
  944000       63      20.516048       115.8979 
  945000       61      18.032779      116.06181 
  946000       61      18.103028      116.22078 
  947000       61      18.199322      116.38373 
  948000       60      17.024029      116.54548 
  949000       60      17.124548      116.68441 
  950000       60      17.315656      116.83493 
  951000       60      17.410819      116.98796 
  952000       60      17.542541      117.13967 
  953000       60      17.711405      117.29424 
  954000       60      17.819417      117.45394 
  955000       60      17.941769      117.62538 
  956000       60      18.201785      117.79127 
  957000       60      18.405635      117.95765 
  958000       59      17.222535      118.12222 
  959000       59      17.427111       118.2656 
  960000       59      17.582088       118.4076 
  961000       59      17.802635      118.55238 
  962000       59      18.052138      118.70678 
  963000       59      18.275391      118.85896 
  964000       59      18.496614      119.01786 
  965000       59      18.795384      119.17283 
  966000       59      18.991761      119.33141 
  967000       59      19.299903      119.49312 
  968000       59      19.621938      119.65639 
  969000       59      20.019533      119.81799 
  970000       58      19.023421      119.97272 
  971000       58      19.317701      120.13038 
  972000       58      19.672888      120.29473 
  973000       58      19.979494      120.45849 
  974000       57      19.044366      120.62338 
  975000       57      19.364579      120.78584 
  976000       57      19.648898      120.95031 
  977000       56      18.593477      121.11357 
  978000       56      18.858707      121.27642 
  979000       55      17.756293      121.43992 
  980000       55      18.024708      121.60391 
  981000       55       18.31033      121.77441 
  982000       54      17.233944       121.9364 
  983000       54      17.437232      122.10082 
  984000       54      17.654329      122.26517 
  985000       54      17.890751      122.43376 
  986000       53      16.766463      122.59088 
  987000       53      17.019013      122.74528 
  988000       53      17.307358      122.89872 
  989000       53      17.578659      123.05245 
  990000       53      17.762572      123.20863 
  991000       53      17.992712      123.37249 
  992000       53      18.277831       123.5342 
  993000       53      18.491687      123.69775 
  994000       52      17.466908      123.86074 
  995000       52      17.776913        124.022 
  996000       52      18.157894      124.18713 
  997000       51      17.071464      124.34719 
  998000       50      16.038524       124.5089 
  999000       50      16.349011      124.65581 
 1000000       50      16.592197      124.80839 
Loop time of 124.808 on 1 procs for 1000000 steps with 50 atoms, finish time Sun Mar 15 12:28:44 2026


Pair  time (%) = 2.74696 (2.20094)
Neigh time (%) = 23.1363 (18.5374)
Comm  time (%) = 1.0967 (0.878707)
Outpt time (%) = 0.703032 (0.563289)
Other time (%) = 97.1254 (77.8196)

Nlocal:    50 ave 50 max 50 min
Histogram: 1 0 0 0 0 0 0 0 0 0
Nghost:    0 ave 0 max 0 min
Histogram: 1 0 0 0 0 0 0 0 0 0
Neighs:    11 ave 11 max 11 min
Histogram: 1 0 0 0 0 0 0 0 0 0

Total # of neighbors = 11
Ave neighs/atom = 0.22
Neighbor list builds = 57502
Dangerous builds = 0
