LIGGGHTS data file

100 atoms
1 atom types

-1 1 xlo xhi
-1 7 ylo yhi
-1 1 zlo zhi

Atoms

1 1 0.06 1000 -0.247944 3.194383 -0.265070
2 1 0.06 1000 -0.260468 3.711647 -0.440735
3 1 0.06 1000 -0.399433 3.568230 -0.416668
4 1 0.06 1000 -0.333809 3.277397 -0.311339
5 1 0.06 1000 -0.390565 3.313401 -0.214331
6 1 0.06 1000 -0.225141 3.435712 -0.284811
7 1 0.06 1000 -0.457519 3.406969 -0.495110
8 1 0.06 1000 -0.427134 2.937232 -0.258747
9 1 0.06 1000 -0.452996 3.200944 -0.461063
10 1 0.06 1000 -0.467357 3.798925 -0.434523
11 1 0.06 1000 -0.346120 3.639112 -0.316208
12 1 0.06 1000 -0.411191 3.437552 -0.342714
13 1 0.06 1000 -0.351925 3.772775 -0.412245
14 1 0.06 1000 -0.268593 3.326745 -0.269026
15 1 0.06 1000 -0.379931 3.691529 -0.415006
16 1 0.06 1000 -0.394262 3.607725 -0.224292
17 1 0.06 1000 -0.479073 3.749327 -0.342201
18 1 0.06 1000 -0.474183 2.992214 -0.301032
19 1 0.06 1000 -0.232930 3.148893 -0.480749
20 1 0.06 1000 -0.493993 3.257702 -0.481071
21 1 0.06 1000 -0.428516 3.770634 -0.229338
22 1 0.06 1000 -0.244724 3.066666 -0.338072
23 1 0.06 1000 -0.387438 3.560249 -0.346239
24 1 0.06 1000 -0.299683 3.331606 -0.488216
25 1 0.06 1000 -0.368709 3.731835 -0.220757
26 1 0.06 1000 -0.283714 3.084293 -0.278440
27 1 0.06 1000 -0.308006 3.154049 -0.293642
28 1 0.06 1000 -0.450208 3.240105 -0.235977
29 1 0.06 1000 -0.242397 3.239560 -0.222809
30 1 0.06 1000 -0.226708 3.282491 -0.435253
31 1 0.06 1000 -0.235681 3.441081 -0.370414
32 1 0.06 1000 -0.407763 3.247034 -0.432168
33 1 0.06 1000 -0.443740 3.076235 -0.333067
34 1 0.06 1000 -0.375050 2.969607 -0.227959
35 1 0.06 1000 -0.469049 2.926075 -0.351367
36 1 0.06 1000 -0.271857 3.784752 -0.219499
37 1 0.06 1000 -0.389401 3.094160 -0.430322
38 1 0.06 1000 -0.324653 3.044413 -0.454283
39 1 0.06 1000 -0.280355 2.925475 -0.261959
40 1 0.06 1000 -0.450769 3.545071 -0.477641
41 1 0.06 1000 -0.214969 2.852529 -0.343531
42 1 0.06 1000 -0.447137 3.040062 -0.260661
43 1 0.06 1000 -0.280204 3.456564 -0.209778
44 1 0.06 1000 -0.308162 3.559735 -0.471956
45 1 0.06 1000 -0.459529 3.320210 -0.476530
46 1 0.06 1000 -0.479028 3.004655 -0.361574
47 1 0.06 1000 -0.484418 2.957807 -0.200002
48 1 0.06 1000 -0.438701 3.689956 -0.462359
49 1 0.06 1000 -0.200660 2.854058 -0.238838
50 1 0.06 1000 -0.478301 2.804162 -0.223079
51 1 0.06 1000 -0.321832 2.980372 -0.451061
52 1 0.06 1000 -0.392271 3.352485 -0.326171
53 1 0.06 1000 -0.364227 3.487387 -0.470108
54 1 0.06 1000 -0.340758 3.557294 -0.408711
55 1 0.06 1000 -0.202331 3.376971 -0.236716
56 1 0.06 1000 -0.275657 3.428910 -0.489374
57 1 0.06 1000 -0.275659 3.633239 -0.222387
58 1 0.06 1000 -0.276857 3.703366 -0.204921
59 1 0.06 1000 -0.431259 3.500620 -0.404940
60 1 0.06 1000 -0.401367 3.031428 -0.477752
61 1 0.06 1000 -0.310078 3.023656 -0.304660
62 1 0.06 1000 -0.358555 3.392540 -0.216705
63 1 0.06 1000 -0.364725 3.136351 -0.245695
64 1 0.06 1000 -0.369646 2.803231 -0.396517
65 1 0.06 1000 -0.320456 3.633243 -0.429832
66 1 0.06 1000 -0.313453 2.840864 -0.375805
67 1 0.06 1000 -0.291205 3.473936 -0.308708
68 1 0.06 1000 -0.395865 2.984622 -0.317268
69 1 0.06 1000 -0.277868 3.002213 -0.223726
70 1 0.06 1000 -0.294573 3.453130 -0.422820
71 1 0.06 1000 -0.340268 2.887644 -0.421851
72 1 0.06 1000 -0.236785 3.486125 -0.471878
73 1 0.06 1000 -0.466617 3.161601 -0.326993
74 1 0.06 1000 -0.267270 3.088379 -0.401107
75 1 0.06 1000 -0.443075 3.784363 -0.498926
76 1 0.06 1000 -0.217085 3.716273 -0.241425
77 1 0.06 1000 -0.438936 3.593657 -0.335587
78 1 0.06 1000 -0.237806 3.298144 -0.327140
79 1 0.06 1000 -0.352280 3.263662 -0.245317
80 1 0.06 1000 -0.422328 2.951230 -0.478236
81 1 0.06 1000 -0.467646 3.447207 -0.390921
82 1 0.06 1000 -0.413519 3.131386 -0.472655
83 1 0.06 1000 -0.371802 3.734495 -0.324929
84 1 0.06 1000 -0.420362 3.458747 -0.271467
85 1 0.06 1000 -0.376764 2.805409 -0.265015
86 1 0.06 1000 -0.267684 3.093678 -0.465600
87 1 0.06 1000 -0.365268 3.786467 -0.287627
88 1 0.06 1000 -0.460489 2.851508 -0.483973
89 1 0.06 1000 -0.362685 3.580868 -0.292377
90 1 0.06 1000 -0.367232 2.919111 -0.323109
91 1 0.06 1000 -0.342276 3.418925 -0.321141
92 1 0.06 1000 -0.429903 3.629808 -0.478973
93 1 0.06 1000 -0.355480 3.025491 -0.251969
94 1 0.06 1000 -0.284161 3.000352 -0.379644
95 1 0.06 1000 -0.384276 3.332846 -0.453583
96 1 0.06 1000 -0.498199 3.332960 -0.246827
97 1 0.06 1000 -0.490132 2.863561 -0.294283
98 1 0.06 1000 -0.329651 2.801125 -0.498287
99 1 0.06 1000 -0.299798 3.679009 -0.304009
100 1 0.06 1000 -0.381644 3.506067 -0.239323
