LIGGGHTS data file

2 atoms
1 atom types

-1 1 xlo xhi
-1 5 ylo yhi
-1 1 zlo zhi

Atoms

1 1 1.600000 1000. 0.060552 1.094882 0.003631
2 1 1.600000 1000. 0.099437 2.858370 -0.074375
