LIGGGHTS (Version LIGGGHTS-PUBLIC 3.8.0, compiled 2026-04-19-19:21:02 by dakahoshi, git commit 3d5c00f20519e6bb6eb6756f51f1ad36564e649d)
units si
atom_style granular
boundary f f f
newton off

communicate single vel yes

read_data data.initial
  orthogonal box = (-1 -1 -1) to (1 5 1)
  1 by 1 by 1 MPI processor grid
  2 atoms

fix m1 all property/global youngsModulus peratomtype 3e8
fix m2 all property/global poissonsRatio peratomtype 0.0
fix m3 all property/global coefficientRestitution peratomtypepair 1 0.3
fix m4 all property/global coefficientFriction peratomtypepair 1 0.3
fix m5 all property/global characteristicVelocity scalar 1.0

neigh_modify delay 0

pair_style gran model hooke tangential history
pair_coeff * *

timestep 1e-5

fix grav all gravity 9.81 vector 0 -1 0

fix cad all mesh/surface file simpleBox.stl type 1 scale 1.0 curvature 1e-5
fix wall all wall/gran model hooke tangential history mesh n_meshes 1 meshes cad

fix integr all nve/sphere

thermo 1000

dump particles all custom/vtk 1000 post/particles_*.vtk id type x y z vx vy vz radius

run 2000000
Setting up run at Sun Apr 19 19:22:05 2026

Memory usage per processor = 9.25897 Mbytes
    Step    Atoms         KinEng            CPU 
       0        2              0              0 
    1000        2      20.639377    0.001531399 
    2000        2      82.557508    0.003065844 
    3000        2      185.75439    0.004548652 
    4000        2      330.23003    0.006155021 
    5000        2      515.98443    0.007667235 
    6000        2      743.01757    0.009183636 
    7000        2      1011.3295    0.010697723 
    8000        2      1320.9201    0.012209625 
    9000        2      1671.7895    0.013727609 
   10000        2      2063.9377    0.015261914 
   11000        2      2497.3646    0.016788715 
   12000        2      2972.0703    0.018329732 
   13000        2      3488.0547    0.019875317 
   14000        2      4045.3179     0.02141923 
   15000        2      4643.8598     0.02297285 
   16000        2      5283.6805    0.024523756 
   17000        2        5964.78    0.026085742 
   18000        2      6687.1582    0.027657687 
   19000        2      7450.8151    0.029226075 
   20000        2      8255.7508     0.03081373 
   21000        2      9101.9653    0.032396895 
   22000        2      9989.4585    0.033993697 
   23000        2       10918.23     0.03567755 
   24000        2      11888.281    0.037286965 
   25000        2      12899.611    0.038902972 
   26000        2      13952.219    0.040533447 
   27000        2      15046.106    0.042171044 
   28000        2      16181.272    0.043803101 
   29000        2      17357.716    0.045437072 
   30000        2      18575.439     0.04716109 
   31000        2      19834.441    0.048805861 
   32000        2      21134.722    0.050447055 
   33000        2      22476.282    0.052102396 
   34000        2       23859.12     0.05375426 
   35000        2      25283.237     0.05542539 
   36000        2      26748.633     0.05709119 
   37000        2      28255.307    0.058771918 
   38000        2       29803.26    0.060459759 
   39000        2      31392.492    0.062148622 
   40000        2      33023.003    0.063857353 
   41000        2      34694.793    0.065648878 
   42000        2      36407.861    0.067359421 
   43000        2      38162.208    0.069076457 
   44000        2      39957.834     0.07079733 
   45000        2      41794.739    0.072521619 
   46000        2      43672.922    0.074242863 
   47000        2      45592.384    0.075992279 
   48000        2      47553.125    0.077737377 
   49000        2      49555.144    0.079494648 
   50000        2      51598.443    0.081245747 
   51000        2       53683.02    0.082991196 
   52000        2      37366.433    0.084927751 
   53000        2       29029.85    0.086898862 
   54000        2      33643.639    0.088867698 
   55000        2       26442.87    0.091195473 
   56000        2      6080.1089    0.094612974 
   57000        2      1932.2403    0.097877018 
   58000        2      1345.3607     0.10110034 
   59000        2      4225.3514     0.10438503 
   60000        2      6384.6535     0.10777482 
   61000        2      5595.1097     0.11111992 
   62000        2       4492.484     0.11312935 
   63000        2      3942.4455     0.11469907 
   64000        2      3433.6857       0.116263 
   65000        2      2966.2046     0.11781651 
   66000        2      2540.0023     0.11936533 
   67000        2      2155.0788      0.1209066 
   68000        2       1811.434     0.12244349 
   69000        2       1509.068     0.12397613 
   70000        2      1247.9807     0.12558507 
   71000        2      1028.1722     0.12710375 
   72000        2      849.64245     0.12860685 
   73000        2      712.39144     0.13010783 
   74000        2      616.41919     0.13159939 
   75000        2      561.72569     0.13309295 
   76000        2      548.31094     0.13457958 
   77000        2      576.17495     0.13605779 
   78000        2      645.31771     0.13754748 
   79000        2      755.73923     0.13904503 
   80000        2       907.4395     0.14054465 
   81000        2      1014.7569     0.14207114 
   82000        2      230.03794     0.14375338 
   83000        2      188.28682     0.14540391 
   84000        2      351.08387      0.1471572 
   85000        2      380.45515     0.14881854 
   86000        2      419.55705     0.15044513 
   87000        2       528.8774     0.15195314 
   88000        2      679.47651     0.15345988 
   89000        2      860.28446     0.15504691 
   90000        2       1031.636     0.15673221 
   91000        2      1229.3502     0.15842507 
   92000        2      1457.2276     0.16012288 
   93000        2      1705.3405     0.16183117 
   94000        2      1972.0854     0.16354258 
   95000        2      2260.0637     0.16526429 
   96000        2         2569.5     0.16708879 
   97000        2      2899.5123     0.16882913 
   98000        2      3249.9931     0.17057234 
   99000        2      3621.1736     0.17231932 
  100000        2      4013.0639     0.17407381 
  101000        2      3423.3299     0.17639738 
  102000        2      1656.8612     0.17965345 
  103000        2      592.84016     0.18286982 
  104000        2      328.76044     0.18603865 
  105000        2      723.05112      0.1892519 
  106000        2      1127.6253     0.19248945 
  107000        2      1140.5123     0.19575111 
  108000        2      847.80465     0.19876489 
  109000        2        683.265     0.20035708 
  110000        2       571.5187     0.20190646 
  111000        2      501.05115     0.20344986 
  112000        2      471.86236     0.20499895 
  113000        2      483.95232     0.20654164 
  114000        2      501.70929     0.20815452 
  115000        2      469.28534      0.2098634 
  116000        2      499.86025     0.21155802 
  117000        2      568.16677     0.21326341 
  118000        2       648.4109     0.21497295 
  119000        2      746.65379     0.21670049 
  120000        2      869.37633     0.21845147 
  121000        2      423.05846     0.22024148 
  122000        2      112.28816     0.22203738 
  123000        2      196.28292     0.22382899 
  124000        2      241.34032     0.22562388 
  125000        2      240.25642     0.22740109 
  126000        2      294.20339     0.22911111 
  127000        2      368.77585     0.23084243 
  128000        2      433.66392     0.23289121 
  129000        2      353.31105     0.23618049 
  130000        2       261.7967     0.23944302 
  131000        2      200.12026     0.24272014 
  132000        2      193.07046     0.24599358 
  133000        2      215.82462     0.24937786 
  134000        2       232.9874     0.25264858 
  135000        2      229.53856     0.25592637 
  136000        2      214.08772     0.25922014 
  137000        2      204.54916     0.26252398 
  138000        2      210.96534     0.26582446 
  139000        2       229.3705     0.26920757 
  140000        2      248.27271     0.27250194 
  141000        2      258.99544     0.27578594 
  142000        2      260.95303     0.27906355 
  143000        2      105.90189      0.2823995 
  144000        2      60.985185     0.28576246 
  145000        2      71.405005     0.28925284 
  146000        2      56.267126     0.29128066 
  147000        2      46.606669     0.29311212 
  148000        2      60.746021     0.29595999 
  149000        2      74.481142     0.29925708 
  150000        2      76.142105      0.3025118 
  151000        2      65.456843     0.30576614 
  152000        2      51.753585     0.30908631 
  153000        2      43.784554     0.31235395 
  154000        2      43.582264     0.31563605 
  155000        2      47.673764     0.31890544 
  156000        2      52.030477     0.32216812 
  157000        2      55.569193     0.32542339 
  158000        2      59.974409      0.3287546 
  159000        2      62.797141     0.33212175 
  160000        2      67.355471     0.33553019 
  161000        2      75.170574     0.33893724 
  162000        2      84.844641      0.3423285 
  163000        2      94.654467     0.34572957 
  164000        2      103.28985     0.34910981 
  165000        2      110.17769     0.35248896 
  166000        2      115.72098     0.35588032 
  167000        2      121.03621     0.35924054 
  168000        2      127.21701     0.36261242 
  169000        2      134.80319     0.36597273 
  170000        2      143.81997     0.36932491 
  171000        2       142.3727     0.37273109 
  172000        2       76.09267     0.37621037 
  173000        2      69.893711     0.37966805 
  174000        2      78.604776     0.38306619 
  175000        2      84.235149     0.38653668 
  176000        2      88.575663     0.39005688 
  177000        2      93.116495     0.39345291 
  178000        2      96.773841     0.39683297 
  179000        2       96.48829     0.40023809 
  180000        2      90.829807     0.40364621 
  181000        2      83.744503     0.40711801 
  182000        2      81.189733     0.41050145 
  183000        2      82.324533     0.41388011 
  184000        2      84.889466     0.41724777 
  185000        2      87.502822     0.42064513 
  186000        2      89.393601     0.42413598 
  187000        2      92.410399     0.42760358 
  188000        2      96.643764     0.43108858 
  189000        2      101.79505     0.43458014 
  190000        2      107.22114     0.43806198 
  191000        2      112.08719      0.4415263 
  192000        2      115.75335     0.44498827 
  193000        2      118.10465     0.44850345 
  194000        2      64.806333     0.45209557 
  195000        2      27.641623     0.45569416 
  196000        2       20.60787     0.45928269 
  197000        2      28.719292      0.4628655 
  198000        2      27.009423     0.46645997 
  199000        2      23.517083     0.47008988 
  200000        2      22.313918     0.47366416 
  201000        2      20.703932      0.4772732 
  202000        2      20.433962     0.48091466 
  203000        2      20.645052      0.4845305 
  204000        2      21.081936     0.48819137 
  205000        2      21.187374     0.49178395 
  206000        2      21.471802     0.49538206 
  207000        2      21.986626     0.49898447 
  208000        2      22.589402     0.50257471 
  209000        2      23.286047      0.5061851 
  210000        2      24.037333      0.5098277 
  211000        2      24.716855     0.51339459 
  212000        2      25.442758     0.51697879 
  213000        2      26.308289     0.52056011 
  214000        2      27.157257     0.52415413 
  215000        2      27.877087     0.52773303 
  216000        2      28.504484     0.53131676 
  217000        2      29.086309     0.53490909 
  218000        2      29.662983     0.53848249 
  219000        2      30.265875     0.54205546 
  220000        2      30.913477     0.54563691 
  221000        2      31.612066     0.54924036 
  222000        2      32.359771     0.55283468 
  223000        2      33.150753      0.5563978 
  224000        2      33.977688     0.55997571 
  225000        2      34.832334     0.56355721 
  226000        2      35.705355     0.56713674 
  227000        2       36.58684     0.57072426 
  228000        2      37.468006     0.57429415 
  229000        2      38.343344     0.57786184 
  230000        2      39.212042     0.58140007 
  231000        2      40.077972     0.58496454 
  232000        2      40.948321     0.58857107 
  233000        2      41.831546     0.59217381 
  234000        2      42.735458     0.59576596 
  235000        2      43.665926     0.59934134 
  236000        2      44.626261     0.60293347 
  237000        2      45.617107     0.60651019 
  238000        2       46.63665     0.61015322 
  239000        2      47.681124     0.61374641 
  240000        2      48.745645     0.61735505 
  241000        2      49.825307     0.62094916 
  242000        2      50.916322     0.62453698 
  243000        2       52.01687     0.62817666 
  244000        2      53.127397     0.63177249 
  245000        2      54.250326     0.63536987 
  246000        2      55.389312     0.63897854 
  247000        2      56.548335     0.64259841 
  248000        2      57.730876     0.64621404 
  249000        2      58.939368     0.64983703 
  250000        2      60.174949     0.65343691 
  251000        2      61.437515     0.65705246 
  252000        2      62.725996     0.66066242 
  253000        2      64.038781     0.66431118 
  254000        2      65.374191     0.66794677 
  255000        2      66.730914      0.6715648 
  256000        2      68.108315     0.67518755 
  257000        2      69.506567     0.67877565 
  258000        2      70.926594     0.68238253 
  259000        2       72.36987     0.68598651 
  260000        2      73.838133     0.68958308 
  261000        2      75.333092     0.69324245 
  262000        2      76.856193     0.69687351 
  263000        2      78.408466     0.70047484 
  264000        2      79.990491     0.70406498 
  265000        2      81.602456     0.70765891 
  266000        2      83.244278     0.71131187 
  267000        2      84.915779     0.71490277 
  268000        2      86.616843     0.71849065 
  269000        2      88.347556     0.72208428 
  270000        2      90.108282     0.72566437 
  271000        2       68.42514     0.72934552 
  272000        2      17.128303      0.7330178 
  273000        2      2.6543736     0.73663278 
  274000        2      10.417692     0.74026173 
  275000        2      12.362659     0.74384858 
  276000        2       5.079242     0.74740384 
  277000        2       1.296084     0.75100075 
  278000        2     0.83599872     0.75455965 
  279000        2     0.78022241     0.75813528 
  280000        2     0.43901066      0.7617021 
  281000        2     0.13861255     0.76526913 
  282000        2     0.10418971     0.76887865 
  283000        2     0.22961702     0.77246543 
  284000        2     0.36858306     0.77602553 
  285000        2     0.47149528     0.77958236 
  286000        2     0.56103856     0.78314003 
  287000        2     0.68133168     0.78671966 
  288000        2     0.83401036     0.79037832 
  289000        2     0.33309397     0.79411523 
  290000        2     0.16128656     0.79787307 
  291000        2    0.047688483     0.80159579 
  292000        2     0.04245359     0.80533781 
  293000        2    0.063430221     0.80910866 
  294000        2    0.043614768     0.81286605 
  295000        2    0.022022182     0.81661625 
  296000        2   0.0061818067     0.82035709 
  297000        2   0.0013043819     0.82412459 
  298000        2   0.0067104068     0.82787172 
  299000        2    0.012539065     0.83161335 
  300000        2    0.012115509     0.83536975 
  301000        2   0.0068011467     0.83911957 
  302000        2   0.0016749613     0.84285049 
  303000        2  1.3646672e-05      0.8466072 
  304000        2   0.0013276946     0.85036273 
  305000        2   0.0030768724     0.85511536 
  306000        2   0.0033673477     0.85892147 
  307000        2   0.0021799732     0.86266831 
  308000        2  0.00071480085     0.86644644 
  309000        2   2.214566e-05     0.87025561 
  310000        2  0.00022319137     0.87401889 
  311000        2  0.00072492252     0.87778762 
  312000        2  0.00092476787     0.88154766 
  313000        2   0.0006844634     0.88528824 
  314000        2  0.00027661118     0.88909136 
  315000        2  2.5444198e-05      0.8928704 
  316000        2    3.05585e-05     0.89663099 
  317000        2  0.00016357534     0.90040982 
  318000        2  0.00024632343     0.90417896 
  319000        2  0.00020719889     0.90795561 
  320000        2  9.9836842e-05       0.911767 
  321000        2  1.6833722e-05     0.91554295 
  322000        2  2.6587804e-06      0.9193269 
  323000        2  3.4616297e-05     0.92306562 
  324000        2  6.3396234e-05     0.92765238 
  325000        2  6.0729889e-05      0.9314102 
  326000        2  3.4133648e-05     0.93518683 
  327000        2  8.4295126e-06     0.93896411 
  328000        2  2.7535391e-08     0.94274569 
  329000        2  6.7254209e-06     0.94652641 
  330000        2  1.5721125e-05     0.95034987 
  331000        2  1.7248994e-05     0.95410925 
  332000        2  1.1149335e-05      0.9578922 
  333000        2  3.6203711e-06     0.96166069 
  334000        2   8.884309e-08     0.96542385 
  335000        2  1.1528839e-06     0.96923938 
  336000        2  3.7360973e-06     0.97300848 
  337000        2  4.7479899e-06     0.97677093 
  338000        2  3.5013539e-06     0.98054396 
  339000        2  1.4077116e-06     0.98429877 
  340000        2  1.2678437e-07     0.98806368 
  341000        2  1.6010681e-07      0.9919228 
  342000        2  8.4403714e-07     0.99569574 
  343000        2   1.265633e-06     0.99947266 
  344000        2  1.0614355e-06      1.0032453 
  345000        2  5.0946848e-07      1.0070167 
  346000        2  8.4920021e-08      1.0107655 
  347000        2  1.4139626e-08       1.014565 
  348000        2  1.7896173e-07      1.0183404 
  349000        2   3.260875e-07       1.022147 
  350000        2  3.1137985e-07      1.0259011 
  351000        2  1.7439205e-07      1.0296535 
  352000        2  4.2733786e-08      1.0334099 
  353000        2  1.6854758e-10      1.0371881 
  354000        2   3.485922e-08      1.0409713 
  355000        2  8.0941839e-08      1.0447339 
  356000        2   8.850705e-08       1.048489 
  357000        2  5.7022155e-08      1.0522464 
  358000        2  1.8409167e-08      1.0560172 
  359000        2  4.2845991e-10      1.0597967 
  360000        2  5.9980688e-09      1.0635811 
  361000        2  1.9257108e-08      1.0673663 
  362000        2  2.4381403e-08      1.0711232 
  363000        2   1.792352e-08      1.0748937 
  364000        2  7.1725106e-09      1.0786672 
  365000        2  6.3320008e-10      1.0824365 
  366000        2  8.3871447e-10      1.0861876 
  367000        2  4.3563557e-09      1.0900262 
  368000        2  6.5043261e-09      1.0938338 
  369000        2  5.4379714e-09       1.097617 
  370000        2  2.5997587e-09      1.1014115 
  371000        2  4.2841413e-10      1.1051823 
  372000        2   7.536195e-11      1.1089235 
  373000        2  9.2529155e-10      1.1126892 
  374000        2  1.6772601e-09      1.1164677 
  375000        2  1.5965072e-09      1.1202677 
  376000        2   8.909837e-10      1.1240386 
  377000        2   2.166434e-10      1.1277932 
  378000        2  1.0275194e-12      1.1315781 
  379000        2  1.8066966e-10       1.135333 
  380000        2  4.1672904e-10      1.1390807 
  381000        2  4.5413737e-10      1.1428536 
  382000        2  2.9162919e-10      1.1465945 
  383000        2  9.3603321e-11      1.1503691 
  384000        2  2.0623426e-12      1.1541423 
  385000        2  3.1202673e-11      1.1578976 
  386000        2   9.925497e-11      1.1616294 
  387000        2  1.2519861e-10      1.1653777 
  388000        2  9.1749022e-11      1.1691202 
  389000        2  3.6543559e-11      1.1728657 
  390000        2  3.1612353e-12      1.1766048 
  391000        2   4.392577e-12      1.1803767 
  392000        2  2.2483777e-11      1.1841318 
  393000        2  3.3426299e-11      1.1878731 
  394000        2  2.7859404e-11      1.1915881 
  395000        2  1.3265827e-11      1.1953605 
  396000        2  2.1609646e-12      1.1991339 
  397000        2  4.0137456e-13      1.2029052 
  398000        2  4.7838374e-12      1.2066465 
  399000        2  8.6269487e-12      1.2104103 
  400000        2   8.185455e-12      1.2141326 
  401000        2    4.55198e-12      1.2178814 
  402000        2   1.098192e-12      1.2216198 
  403000        2  6.1874253e-15      1.2253847 
  404000        2  9.3631794e-13      1.2291348 
  405000        2  2.1454756e-12      1.2328889 
  406000        2  2.3301708e-12      1.2366428 
  407000        2  1.4914432e-12      1.2404006 
  408000        2  4.7590508e-13       1.244147 
  409000        2  9.9058166e-15      1.2478989 
  410000        2  1.6230172e-13      1.2517052 
  411000        2  5.1156345e-13      1.2554424 
  412000        2  6.4287923e-13       1.259174 
  413000        2  4.6964038e-13      1.2629123 
  414000        2  1.8617589e-13       1.266644 
  415000        2  1.5775271e-14      1.2704325 
  416000        2  2.3000614e-14      1.2742027 
  417000        2  1.1603871e-13      1.2779677 
  418000        2  1.7177713e-13      1.2817175 
  419000        2   1.427237e-13       1.285463 
  420000        2   6.768873e-14      1.2892063 
  421000        2  1.0898069e-14      1.2930197 
  422000        2  2.1362663e-15      1.2967781 
  423000        2  2.4731668e-14      1.3005427 
  424000        2  4.4371316e-14      1.3043244 
  425000        2  4.1967013e-14       1.308095 
  426000        2  2.3255544e-14      1.3119163 
  427000        2  5.5666249e-15      1.3156736 
  428000        2  3.6832845e-17      1.3194806 
  429000        2  4.8518959e-15      1.3234078 
  430000        2  1.1045219e-14      1.3272709 
  431000        2  1.1955593e-14      1.3323205 
  432000        2  7.6270254e-15      1.3361322 
  433000        2  2.4193089e-15      1.3399002 
  434000        2  4.7454225e-17      1.3436662 
  435000        2  8.4415739e-16      1.3474396 
  436000        2  2.6365229e-15      1.3512011 
  437000        2  3.3008769e-15      1.3549473 
  438000        2   2.403403e-15      1.3587373 
  439000        2  9.4802461e-16      1.3624862 
  440000        2  7.8570942e-17      1.3663977 
  441000        2  1.2051664e-16      1.3702328 
  442000        2   5.989594e-16      1.3740161 
  443000        2  8.8274167e-16      1.3777768 
  444000        2  7.3105057e-16       1.381545 
  445000        2  3.4525148e-16      1.3853371 
  446000        2  5.4898952e-17      1.3891201 
  447000        2  1.1382664e-17      1.3929637 
  448000        2  1.2789519e-16      1.3967312 
  449000        2  2.2823936e-16      1.4007778 
  450000        2   2.148976e-16      1.4051592 
  451000        2  1.1845914e-16      1.4089094 
  452000        2  2.8022171e-17      1.4127162 
  453000        2  2.3175257e-19      1.4164972 
  454000        2  2.5247208e-17      1.4202884 
  455000        2  5.6926629e-17      1.4240573 
  456000        2  6.1354272e-17      1.4278089 
  457000        2  3.9021215e-17      1.4316302 
  458000        2   1.231648e-17      1.4354276 
  459000        2   2.293824e-19      1.4392077 
  460000        2  4.3799698e-18      1.4430878 
  461000        2  1.3582417e-17      1.4469102 
  462000        2  1.6943572e-17      1.4507541 
  463000        2  1.2363574e-17      1.4545383 
  464000        2  4.8708725e-18      1.4583027 
  465000        2  4.0430698e-19      1.4620774 
  466000        2  6.1963648e-19      1.4658713 
  467000        2  3.0797826e-18      1.4696484 
  468000        2  4.5124322e-18      1.4734017 
  469000        2  3.7707427e-18       1.477152 
  470000        2  1.7806722e-18      1.4809108 
  471000        2  2.8690246e-19      1.4856906 
  472000        2  5.5604575e-20      1.4894939 
  473000        2  6.5241175e-19      1.4933029 
  474000        2  1.1520268e-18      1.4970644 
  475000        2  1.0911995e-18      1.5008173 
  476000        2  6.1338913e-19       1.504576 
  477000        2  1.4077231e-19      1.5083413 
  478000        2  9.3354891e-22      1.5121231 
  479000        2  1.2336081e-19      1.5159015 
  480000        2  2.9797534e-19      1.5196731 
  481000        2  2.9084932e-19       1.523471 
  482000        2  1.7205107e-19      1.5272541 
  483000        2   7.111187e-20      1.5310019 
  484000        2  1.5598836e-20      1.5348057 
  485000        2  4.3277434e-21      1.5385822 
  486000        2  1.9922853e-20      1.5423615 
  487000        2  4.2116307e-20      1.5461984 
  488000        2  5.3328655e-20      1.5500129 
  489000        2  4.8832147e-20      1.5538178 
  490000        2  3.6253807e-20      1.5575619 
  491000        2  2.3867618e-20      1.5613959 
  492000        2  1.4249281e-20      1.5659874 
  493000        2  7.4348995e-21      1.5697546 
  494000        2  3.1057993e-21      1.5735756 
  495000        2  8.2591644e-22      1.5773535 
  496000        2  4.6885384e-23       1.581147 
  497000        2  1.9028244e-22      1.5849304 
  498000        2  7.4934821e-22      1.5887054 
  499000        2   1.353112e-21      1.5924678 
  500000        2   1.782861e-21      1.5962384 
  501000        2  1.9534422e-21      1.5999967 
  502000        2  1.8761795e-21      1.6037501 
  503000        2  1.6175955e-21      1.6075151 
  504000        2  1.2634071e-21      1.6113054 
  505000        2  8.9276035e-22      1.6150803 
  506000        2  5.6380796e-22      1.6188666 
  507000        2  3.0905094e-22      1.6226291 
  508000        2  1.3771171e-22      1.6263982 
  509000        2  4.1931463e-23      1.6301624 
  510000        2   4.140195e-24      1.6339498 
  511000        2  3.6830846e-24      1.6377626 
  512000        2  2.1662333e-23      1.6416202 
  513000        2  4.3697583e-23      1.6454269 
  514000        2  6.0826431e-23      1.6501742 
  515000        2  6.9050421e-23       1.654059 
  516000        2  6.8130776e-23      1.6578622 
  517000        2  6.0119609e-23      1.6616599 
  518000        2  4.8005517e-23      1.6654525 
  519000        2  3.4720272e-23      1.6692357 
  520000        2  2.2532045e-23       1.673019 
  521000        2  1.2802993e-23      1.6768452 
  522000        2  6.0334026e-24      1.6806458 
  523000        2  2.0588488e-24      1.6844541 
  524000        2  3.0915236e-25      1.6882403 
  525000        2   5.544982e-26      1.6920046 
  526000        2  5.9887309e-25      1.6958346 
  527000        2  1.3862535e-24       1.699658 
  528000        2   2.053713e-24      1.7034778 
  529000        2  2.4261175e-24      1.7072997 
  530000        2  2.4690485e-24      1.7111476 
  531000        2   2.234835e-24      1.7149523 
  532000        2  1.8266939e-24      1.7187522 
  533000        2  1.3533161e-24      1.7225457 
  534000        2  9.0300107e-25      1.7263687 
  535000        2  5.3167057e-25      1.7307947 
  536000        2  2.6390655e-25      1.7349985 
  537000        2  9.9564645e-26      1.7387297 
  538000        2  2.0126842e-26      1.7424363 
  539000        2  6.7922256e-28      1.7461738 
  540000        2  1.5111113e-26       1.749892 
  541000        2  4.2491406e-26      1.7536463 
  542000        2  6.7611799e-26      1.7573432 
  543000        2  8.2705242e-26      1.7610412 
  544000        2  8.6173958e-26      1.7647418 
  545000        2  7.9937578e-26      1.7684391 
  546000        2  6.7228596e-26      1.7721607 
  547000        2  5.1856127e-26      1.7758736 
  548000        2  3.6657239e-26      1.7795824 
  549000        2   2.334664e-26      1.7832975 
  550000        2  1.2786518e-26      1.7871082 
  551000        2  5.7386422e-27      1.7908534 
  552000        2  1.8946158e-27      1.7945894 
  553000        2  2.8794334e-28      1.7983475 
  554000        2  5.8184805e-29      1.8021126 
  555000        2  5.5625762e-28      1.8058629 
  556000        2  1.3235863e-27      1.8096252 
  557000        2  2.1037028e-27      1.8133536 
  558000        2  2.6400311e-27      1.8170796 
  559000        2  2.8282201e-27      1.8208295 
  560000        2   2.762034e-27      1.8245529 
  561000        2  2.5036072e-27      1.8282854 
  562000        2  2.1473499e-27      1.8320271 
  563000        2  1.7829465e-27      1.8357589 
  564000        2  1.4363172e-27       1.839581 
  565000        2  1.1500576e-27      1.8433482 
  566000        2  9.1589054e-28      1.8478568 
  567000        2  7.3242451e-28      1.8518799 
  568000        2  6.1015391e-28      1.8556091 
  569000        2  5.1195248e-28      1.8594007 
  570000        2  4.4361316e-28      1.8631757 
  571000        2  3.7716648e-28      1.8669201 
  572000        2  3.3577459e-28      1.8706631 
  573000        2  3.1628757e-28      1.8744141 
  574000        2  3.0025374e-28      1.8781621 
  575000        2  2.9374861e-28      1.8819179 
  576000        2  2.8853505e-28      1.8856574 
  577000        2  2.8361901e-28      1.8893874 
  578000        2  2.7911613e-28      1.8931358 
  579000        2  2.7479627e-28       1.896893 
  580000        2  2.7055306e-28      1.9006269 
  581000        2  2.6594619e-28      1.9043631 
  582000        2  2.6136072e-28      1.9081061 
  583000        2  2.5647356e-28      1.9118454 
  584000        2  2.5226366e-28      1.9164698 
  585000        2  2.4851137e-28      1.9202386 
  586000        2  2.4379725e-28      1.9240361 
  587000        2  2.3992014e-28      1.9278352 
  588000        2  2.3588269e-28       1.931601 
  589000        2  2.3195658e-28      1.9354158 
  590000        2  2.2799797e-28      1.9391892 
  591000        2  2.2421703e-28      1.9429754 
  592000        2  2.2044032e-28      1.9467554 
  593000        2  2.1667537e-28      1.9505044 
  594000        2  2.1266764e-28       1.954305 
  595000        2  2.1069891e-28      1.9580535 
  596000        2  2.1089697e-28       1.961814 
  597000        2   2.108952e-28      1.9655728 
  598000        2  2.1091004e-28      1.9693314 
  599000        2  2.1089137e-28      1.9733688 
  600000        2   2.109065e-28      1.9777762 
  601000        2  2.1090444e-28      1.9815348 
  602000        2  2.1089699e-28      1.9852932 
  603000        2  2.1089522e-28      1.9890517 
  604000        2  2.1091034e-28      1.9928722 
  605000        2  2.1089167e-28      1.9966248 
  606000        2   2.108899e-28      2.0003749 
  607000        2  2.1090475e-28      2.0041371 
  608000        2  2.1089729e-28      2.0078978 
  609000        2  2.1089552e-28      2.0116412 
  610000        2  2.1089375e-28       2.015389 
  611000        2  2.1090859e-28      2.0192541 
  612000        2  2.1088992e-28      2.0230954 
  613000        2  2.1089936e-28      2.0268987 
  614000        2    2.10903e-28      2.0306483 
  615000        2  2.1089554e-28      2.0344417 
  616000        2  2.1089377e-28      2.0381808 
  617000        2   2.109089e-28      2.0419263 
  618000        2  2.1090684e-28      2.0456697 
  619000        2  2.1089938e-28      2.0502735 
  620000        2  2.1089761e-28      2.0540639 
  621000        2  2.1091274e-28      2.0578102 
  622000        2  2.1089407e-28      2.0615247 
  623000        2   2.108923e-28      2.0652547 
  624000        2  2.1090715e-28      2.0689744 
  625000        2  2.1090509e-28      2.0727453 
  626000        2  2.1089792e-28      2.0764718 
  627000        2  2.1090155e-28      2.0801961 
  628000        2  2.1091099e-28      2.0839194 
  629000        2  2.1089232e-28      2.0876593 
  630000        2  2.1090745e-28      2.0913921 
  631000        2  2.1090539e-28      2.0951783 
  632000        2  2.1089794e-28      2.0989061 
  633000        2  2.1089617e-28      2.1026305 
  634000        2   2.108944e-28      2.1063528 
  635000        2  2.1090924e-28      2.1100748 
  636000        2  2.1089057e-28      2.1138486 
  637000        2   2.109057e-28      2.1175797 
  638000        2  2.1090364e-28      2.1213864 
  639000        2  2.1089619e-28      2.1259096 
  640000        2  2.1089442e-28      2.1298341 
  641000        2  2.1090954e-28      2.1336553 
  642000        2  2.1090749e-28      2.1374232 
  643000        2    2.10906e-28      2.1412208 
  644000        2  2.1090395e-28      2.1450202 
  645000        2  2.1089649e-28      2.1487564 
  646000        2  2.1089472e-28      2.1525855 
  647000        2  2.1089295e-28      2.1563545 
  648000        2  2.1090779e-28      2.1601631 
  649000        2  2.1088912e-28      2.1639348 
  650000        2  2.1089857e-28      2.1676811 
  651000        2   2.109022e-28      2.1714371 
  652000        2  2.1089474e-28      2.1751912 
  653000        2  2.1089297e-28      2.1790085 
  654000        2   2.109081e-28      2.1827978 
  655000        2  2.1090604e-28      2.1865845 
  656000        2  2.1089859e-28      2.1903505 
  657000        2  2.1089681e-28      2.1941452 
  658000        2  2.1091194e-28      2.1981831 
  659000        2  2.1089327e-28       2.202683 
  660000        2   2.108915e-28      2.2064355 
  661000        2  2.1090635e-28      2.2102099 
  662000        2  2.1090429e-28      2.2140035 
  663000        2  2.1089712e-28      2.2177581 
  664000        2  2.1089535e-28      2.2215222 
  665000        2  2.1091019e-28      2.2252797 
  666000        2  2.1089152e-28      2.2290155 
  667000        2  2.1090665e-28      2.2327519 
  668000        2   2.109046e-28      2.2364957 
  669000        2  2.1089714e-28      2.2402348 
  670000        2  2.1089537e-28       2.243971 
  671000        2   2.109105e-28       2.247711 
  672000        2  2.1090844e-28      2.2514424 
  673000        2  2.1089005e-28      2.2560512 
  674000        2   2.109049e-28      2.2598113 
  675000        2  2.1090284e-28      2.2635497 
  676000        2  2.1089567e-28        2.26729 
  677000        2  2.1089362e-28      2.2710418 
  678000        2  2.1090874e-28      2.2747765 
  679000        2  2.1090669e-28      2.2785139 
  680000        2   2.109052e-28      2.2822694 
  681000        2  2.1090315e-28      2.2860083 
  682000        2  2.1089569e-28      2.2897498 
  683000        2  2.1089392e-28      2.2935092 
  684000        2  2.1089215e-28      2.2972657 
  685000        2  2.1090699e-28      2.3010139 
  686000        2  2.1089954e-28      2.3047671 
  687000        2  2.1089777e-28      2.3085098 
  688000        2   2.109014e-28      2.3122823 
  689000        2  2.1091084e-28      2.3160335 
  690000        2  2.1089217e-28      2.3197932 
  691000        2   2.109073e-28      2.3235427 
  692000        2  2.1090524e-28      2.3272974 
  693000        2  2.1089779e-28      2.3310458 
  694000        2  2.1089601e-28      2.3347876 
  695000        2  2.1091114e-28      2.3385362 
  696000        2  2.1089247e-28      2.3422969 
  697000        2   2.108907e-28      2.3461196 
  698000        2  2.1090555e-28      2.3498942 
  699000        2  2.1090349e-28      2.3536997 
  700000        2  2.1089632e-28      2.3574505 
  701000        2  2.1089455e-28      2.3612025 
  702000        2  2.1090939e-28      2.3649617 
  703000        2  2.1089072e-28      2.3687159 
  704000        2  2.1090016e-28      2.3724745 
  705000        2   2.109038e-28      2.3762239 
  706000        2  2.1089634e-28      2.3799608 
  707000        2  2.1089457e-28      2.3837034 
  708000        2   2.109097e-28      2.3874427 
  709000        2  2.1090764e-28      2.3911871 
  710000        2  2.1088925e-28      2.3949966 
  711000        2  2.1089841e-28      2.3987387 
  712000        2  2.1090204e-28      2.4024744 
  713000        2  2.1089487e-28      2.4062083 
  714000        2   2.108931e-28      2.4099499 
  715000        2  2.1090795e-28      2.4136726 
  716000        2  2.1090589e-28      2.4174303 
  717000        2  2.1089872e-28      2.4211682 
  718000        2  2.1090235e-28      2.4249002 
  719000        2  2.1091179e-28      2.4286239 
  720000        2  2.1089312e-28       2.432346 
  721000        2  2.1089135e-28      2.4360844 
  722000        2  2.1090619e-28      2.4398304 
  723000        2  2.1089874e-28      2.4435719 
  724000        2  2.1089697e-28      2.4473165 
  725000        2   2.108952e-28      2.4510541 
  726000        2  2.1091004e-28      2.4548512 
  727000        2  2.1089137e-28      2.4585751 
  728000        2   2.109065e-28      2.4623276 
  729000        2  2.1090444e-28      2.4661263 
  730000        2  2.1089699e-28      2.4698759 
  731000        2  2.1089522e-28      2.4736613 
  732000        2  2.1091034e-28      2.4774216 
  733000        2  2.1089167e-28      2.4811767 
  734000        2   2.108899e-28       2.484939 
  735000        2  2.1090475e-28      2.4886912 
  736000        2  2.1089729e-28      2.4924464 
  737000        2  2.1089552e-28      2.4961976 
  738000        2  2.1089375e-28       2.499952 
  739000        2  2.1090859e-28      2.5037005 
  740000        2  2.1088992e-28      2.5074502 
  741000        2  2.1089936e-28      2.5112059 
  742000        2    2.10903e-28      2.5149599 
  743000        2  2.1089554e-28      2.5187081 
  744000        2  2.1089377e-28      2.5224409 
  745000        2   2.109089e-28      2.5261855 
  746000        2  2.1090684e-28      2.5299215 
  747000        2  2.1089938e-28      2.5336623 
  748000        2  2.1089761e-28      2.5374016 
  749000        2  2.1091274e-28      2.5411458 
  750000        2  2.1089407e-28      2.5448802 
  751000        2   2.108923e-28      2.5486205 
  752000        2  2.1090715e-28      2.5523563 
  753000        2  2.1090509e-28      2.5560951 
  754000        2  2.1089792e-28      2.5598434 
  755000        2  2.1090155e-28      2.5635654 
  756000        2  2.1091099e-28      2.5672902 
  757000        2  2.1089232e-28      2.5710146 
  758000        2  2.1090745e-28      2.5748088 
  759000        2  2.1090539e-28      2.5785293 
  760000        2  2.1089794e-28      2.5822562 
  761000        2  2.1089617e-28      2.5859824 
  762000        2   2.108944e-28      2.5896964 
  763000        2  2.1090924e-28      2.5934565 
  764000        2  2.1089057e-28      2.5972063 
  765000        2   2.109057e-28      2.6009335 
  766000        2  2.1090364e-28      2.6046574 
  767000        2  2.1089619e-28      2.6083837 
  768000        2  2.1089442e-28      2.6121066 
  769000        2  2.1090954e-28      2.6158849 
  770000        2  2.1090749e-28      2.6196093 
  771000        2    2.10906e-28      2.6233594 
  772000        2  2.1090395e-28      2.6271049 
  773000        2  2.1089649e-28      2.6308476 
  774000        2  2.1089472e-28      2.6346269 
  775000        2  2.1089295e-28      2.6383794 
  776000        2  2.1090779e-28      2.6421217 
  777000        2  2.1088912e-28      2.6458707 
  778000        2  2.1089857e-28      2.6496117 
  779000        2   2.109022e-28      2.6534059 
  780000        2  2.1089474e-28      2.6571509 
  781000        2  2.1089297e-28      2.6608873 
  782000        2   2.109081e-28      2.6646158 
  783000        2  2.1090604e-28      2.6683547 
  784000        2  2.1089859e-28      2.6720892 
  785000        2  2.1089681e-28      2.6758827 
  786000        2  2.1091194e-28      2.6796359 
  787000        2  2.1089327e-28      2.6833794 
  788000        2   2.108915e-28      2.6871139 
  789000        2  2.1090635e-28      2.6908596 
  790000        2  2.1090429e-28      2.6946367 
  791000        2  2.1089712e-28      2.6983784 
  792000        2  2.1089535e-28      2.7021066 
  793000        2  2.1091019e-28      2.7058314 
  794000        2  2.1089152e-28      2.7095446 
  795000        2  2.1090665e-28      2.7132936 
  796000        2   2.109046e-28      2.7170325 
  797000        2  2.1089714e-28      2.7207505 
  798000        2  2.1089537e-28      2.7244724 
  799000        2   2.109105e-28      2.7282163 
  800000        2  2.1090844e-28      2.7319375 
  801000        2  2.1089005e-28      2.7357133 
  802000        2   2.109049e-28      2.7394419 
  803000        2  2.1090284e-28      2.7431674 
  804000        2  2.1089567e-28      2.7468914 
  805000        2  2.1089362e-28      2.7506078 
  806000        2  2.1090874e-28      2.7543809 
  807000        2  2.1090669e-28      2.7581061 
  808000        2   2.109052e-28      2.7618308 
  809000        2  2.1090315e-28      2.7655447 
  810000        2  2.1089569e-28      2.7692736 
  811000        2  2.1089392e-28      2.7730047 
  812000        2  2.1089215e-28      2.7767943 
  813000        2  2.1090699e-28      2.7805616 
  814000        2  2.1089954e-28      2.7843421 
  815000        2  2.1089777e-28      2.7881128 
  816000        2   2.109014e-28      2.7918651 
  817000        2  2.1091084e-28      2.7961294 
  818000        2  2.1089217e-28       2.800255 
  819000        2   2.109073e-28      2.8040172 
  820000        2  2.1090524e-28      2.8077691 
  821000        2  2.1089779e-28      2.8115363 
  822000        2  2.1089601e-28      2.8153389 
  823000        2  2.1091114e-28      2.8191135 
  824000        2  2.1089247e-28      2.8228672 
  825000        2   2.108907e-28      2.8266076 
  826000        2  2.1090555e-28      2.8303551 
  827000        2  2.1090349e-28      2.8341038 
  828000        2  2.1089632e-28      2.8378995 
  829000        2  2.1089455e-28       2.841652 
  830000        2  2.1090939e-28      2.8454011 
  831000        2  2.1089072e-28       2.849158 
  832000        2  2.1090016e-28       2.852912 
  833000        2   2.109038e-28      2.8566995 
  834000        2  2.1089634e-28      2.8604449 
  835000        2  2.1089457e-28      2.8641929 
  836000        2   2.109097e-28      2.8679421 
  837000        2  2.1090764e-28       2.871672 
  838000        2  2.1088925e-28        2.87556 
  839000        2  2.1089841e-28       2.879307 
  840000        2  2.1090204e-28      2.8830582 
  841000        2  2.1089487e-28      2.8868046 
  842000        2   2.108931e-28      2.8905265 
  843000        2  2.1090795e-28      2.8942994 
  844000        2  2.1090589e-28      2.8980379 
  845000        2  2.1089872e-28      2.9017733 
  846000        2  2.1090235e-28      2.9055051 
  847000        2  2.1091179e-28      2.9092304 
  848000        2  2.1089312e-28      2.9129616 
  849000        2  2.1089135e-28      2.9167469 
  850000        2  2.1090619e-28      2.9205292 
  851000        2  2.1089874e-28      2.9242662 
  852000        2  2.1089697e-28      2.9279923 
  853000        2   2.108952e-28      2.9317174 
  854000        2  2.1091004e-28       2.935495 
  855000        2  2.1089137e-28      2.9392526 
  856000        2   2.109065e-28      2.9429976 
  857000        2  2.1090444e-28      2.9467356 
  858000        2  2.1089699e-28      2.9504801 
  859000        2  2.1089522e-28      2.9542935 
  860000        2  2.1091034e-28      2.9580499 
  861000        2  2.1089167e-28       2.961794 
  862000        2   2.108899e-28       2.965538 
  863000        2  2.1090475e-28      2.9693012 
  864000        2  2.1089729e-28      2.9730558 
  865000        2  2.1089552e-28      2.9768544 
  866000        2  2.1089375e-28      2.9805962 
  867000        2  2.1090859e-28      2.9843527 
  868000        2  2.1088992e-28      2.9880975 
  869000        2  2.1089936e-28      2.9918565 
  870000        2    2.10903e-28      2.9955923 
  871000        2  2.1089554e-28      2.9993422 
  872000        2  2.1089377e-28      3.0031027 
  873000        2   2.109089e-28      3.0068636 
  874000        2  2.1090684e-28      3.0106118 
  875000        2  2.1089938e-28      3.0144023 
  876000        2  2.1089761e-28      3.0181574 
  877000        2  2.1091274e-28      3.0219061 
  878000        2  2.1089407e-28      3.0256428 
  879000        2   2.108923e-28      3.0293884 
  880000        2  2.1090715e-28      3.0331131 
  881000        2  2.1090509e-28      3.0369023 
  882000        2  2.1089792e-28       3.040627 
  883000        2  2.1090155e-28      3.0443526 
  884000        2  2.1091099e-28      3.0480796 
  885000        2  2.1089232e-28      3.0518054 
  886000        2  2.1090745e-28      3.0555805 
  887000        2  2.1090539e-28      3.0593016 
  888000        2  2.1089794e-28      3.0630306 
  889000        2  2.1089617e-28      3.0667443 
  890000        2   2.108944e-28      3.0704684 
  891000        2  2.1090924e-28      3.0742141 
  892000        2  2.1089057e-28      3.0779596 
  893000        2   2.109057e-28       3.081679 
  894000        2  2.1090364e-28      3.0853968 
  895000        2  2.1089619e-28      3.0892151 
  896000        2  2.1089442e-28      3.0929577 
  897000        2  2.1090954e-28      3.0967405 
  898000        2  2.1090749e-28      3.1004705 
  899000        2    2.10906e-28      3.1042009 
  900000        2  2.1090395e-28       3.107921 
  901000        2  2.1089649e-28      3.1116923 
  902000        2  2.1089472e-28      3.1154927 
  903000        2  2.1089295e-28      3.1192438 
  904000        2  2.1090779e-28      3.1229964 
  905000        2  2.1088912e-28      3.1267434 
  906000        2  2.1089857e-28      3.1304917 
  907000        2   2.109022e-28      3.1343049 
  908000        2  2.1089474e-28      3.1380615 
  909000        2  2.1089297e-28      3.1418029 
  910000        2   2.109081e-28      3.1455473 
  911000        2  2.1090604e-28      3.1492998 
  912000        2  2.1089859e-28      3.1530512 
  913000        2  2.1089681e-28      3.1567804 
  914000        2  2.1091194e-28      3.1605313 
  915000        2  2.1089327e-28      3.1642862 
  916000        2   2.108915e-28      3.1680536 
  917000        2  2.1090635e-28      3.1718126 
  918000        2  2.1090429e-28       3.175606 
  919000        2  2.1089712e-28      3.1793519 
  920000        2  2.1089535e-28      3.1830988 
  921000        2  2.1091019e-28      3.1868381 
  922000        2  2.1089152e-28      3.1907002 
  923000        2  2.1090665e-28      3.1944728 
  924000        2   2.109046e-28      3.1982232 
  925000        2  2.1089714e-28      3.2019559 
  926000        2  2.1089537e-28      3.2056916 
  927000        2   2.109105e-28      3.2094483 
  928000        2  2.1090844e-28      3.2132034 
  929000        2  2.1089005e-28      3.2169959 
  930000        2   2.109049e-28      3.2207321 
  931000        2  2.1090284e-28      3.2244718 
  932000        2  2.1089567e-28       3.228208 
  933000        2  2.1089362e-28      3.2319539 
  934000        2  2.1090874e-28      3.2357475 
  935000        2  2.1090669e-28      3.2394936 
  936000        2   2.109052e-28      3.2432298 
  937000        2  2.1090315e-28      3.2469665 
  938000        2  2.1089569e-28      3.2506939 
  939000        2  2.1089392e-28      3.2544693 
  940000        2  2.1089215e-28      3.2582123 
  941000        2  2.1090699e-28      3.2619521 
  942000        2  2.1089954e-28      3.2656805 
  943000        2  2.1089777e-28      3.2694161 
  944000        2   2.109014e-28      3.2731471 
  945000        2  2.1091084e-28      3.2769692 
  946000        2  2.1089217e-28       3.280734 
  947000        2   2.109073e-28      3.2844894 
  948000        2  2.1090524e-28      3.2882434 
  949000        2  2.1089779e-28      3.2919944 
  950000        2  2.1089601e-28      3.2957823 
  951000        2  2.1091114e-28      3.2995548 
  952000        2  2.1089247e-28       3.303332 
  953000        2   2.108907e-28      3.3070649 
  954000        2  2.1090555e-28      3.3108153 
  955000        2  2.1090349e-28      3.3145457 
  956000        2  2.1089632e-28      3.3182756 
  957000        2  2.1089455e-28      3.3220488 
  958000        2  2.1090939e-28      3.3257736 
  959000        2  2.1089072e-28      3.3295045 
  960000        2  2.1090016e-28      3.3332705 
  961000        2   2.109038e-28      3.3370258 
  962000        2  2.1089634e-28      3.3407713 
  963000        2  2.1089457e-28      3.3445193 
  964000        2   2.109097e-28      3.3482595 
  965000        2  2.1090764e-28      3.3520118 
  966000        2  2.1088925e-28      3.3557509 
  967000        2  2.1089841e-28      3.3594801 
  968000        2  2.1090204e-28      3.3632203 
  969000        2  2.1089487e-28      3.3669613 
  970000        2   2.108931e-28      3.3706871 
  971000        2  2.1090795e-28      3.3744211 
  972000        2  2.1090589e-28      3.3782184 
  973000        2  2.1089872e-28      3.3819623 
  974000        2  2.1090235e-28      3.3856847 
  975000        2  2.1091179e-28       3.389407 
  976000        2  2.1089312e-28      3.3931237 
  977000        2  2.1089135e-28      3.3969108 
  978000        2  2.1090619e-28      3.4006672 
  979000        2  2.1089874e-28      3.4043903 
  980000        2  2.1089697e-28      3.4081088 
  981000        2   2.108952e-28      3.4118328 
  982000        2  2.1091004e-28       3.415588 
  983000        2  2.1089137e-28       3.419349 
  984000        2   2.109065e-28      3.4231179 
  985000        2  2.1090444e-28      3.4268425 
  986000        2  2.1089699e-28      3.4305537 
  987000        2  2.1089522e-28      3.4342933 
  988000        2  2.1091034e-28      3.4380852 
  989000        2  2.1089167e-28       3.441861 
  990000        2   2.108899e-28      3.4456129 
  991000        2  2.1090475e-28       3.449355 
  992000        2  2.1089729e-28      3.4530896 
  993000        2  2.1089552e-28      3.4568266 
  994000        2  2.1089375e-28      3.4605723 
  995000        2  2.1090859e-28      3.4643302 
  996000        2  2.1088992e-28      3.4682223 
  997000        2  2.1089936e-28      3.4729044 
  998000        2    2.10903e-28      3.4769403 
  999000        2  2.1089554e-28      3.4806741 
 1000000        2  2.1089377e-28      3.4844343 
 1001000        2   2.109089e-28      3.4881822 
 1002000        2  2.1090684e-28      3.4919504 
 1003000        2  2.1089938e-28      3.4957216 
 1004000        2  2.1089761e-28       3.499477 
 1005000        2  2.1091274e-28      3.5032421 
 1006000        2  2.1089407e-28      3.5070057 
 1007000        2   2.108923e-28      3.5107472 
 1008000        2  2.1090715e-28      3.5145038 
 1009000        2  2.1090509e-28      3.5183049 
 1010000        2  2.1089792e-28      3.5220744 
 1011000        2  2.1090155e-28      3.5258346 
 1012000        2  2.1091099e-28      3.5305196 
 1013000        2  2.1089232e-28      3.5342903 
 1014000        2  2.1090745e-28       3.538076 
 1015000        2  2.1090539e-28      3.5418297 
 1016000        2  2.1089794e-28      3.5455731 
 1017000        2  2.1089617e-28      3.5493018 
 1018000        2   2.108944e-28      3.5530255 
 1019000        2  2.1090924e-28       3.556796 
 1020000        2  2.1089057e-28      3.5605391 
 1021000        2   2.109057e-28      3.5642601 
 1022000        2  2.1090364e-28      3.5679983 
 1023000        2  2.1089619e-28      3.5717166 
 1024000        2  2.1089442e-28      3.5754401 
 1025000        2  2.1090954e-28      3.5792278 
 1026000        2  2.1090749e-28      3.5829529 
 1027000        2    2.10906e-28      3.5866826 
 1028000        2  2.1090395e-28      3.5904061 
 1029000        2  2.1089649e-28      3.5941343 
 1030000        2  2.1089472e-28      3.5979235 
 1031000        2  2.1089295e-28      3.6016428 
 1032000        2  2.1090779e-28      3.6053948 
 1033000        2  2.1088912e-28      3.6091392 
 1034000        2  2.1089857e-28      3.6129055 
 1035000        2   2.109022e-28      3.6167307 
 1036000        2  2.1089474e-28      3.6214942 
 1037000        2  2.1089297e-28      3.6252858 
 1038000        2   2.109081e-28      3.6290556 
 1039000        2  2.1090604e-28      3.6328033 
 1040000        2  2.1089859e-28      3.6366138 
 1041000        2  2.1089681e-28       3.640383 
 1042000        2  2.1091194e-28      3.6441486 
 1043000        2  2.1089327e-28      3.6478951 
 1044000        2   2.108915e-28      3.6516383 
 1045000        2  2.1090635e-28      3.6553903 
 1046000        2  2.1090429e-28      3.6591795 
 1047000        2  2.1089712e-28      3.6629336 
 1048000        2  2.1089535e-28      3.6666852 
 1049000        2  2.1091019e-28      3.6704191 
 1050000        2  2.1089152e-28      3.6741523 
 1051000        2  2.1090665e-28      3.6779443 
 1052000        2   2.109046e-28      3.6816707 
 1053000        2  2.1089714e-28      3.6861791 
 1054000        2  2.1089537e-28      3.6901306 
 1055000        2   2.109105e-28       3.693875 
 1056000        2  2.1090844e-28      3.6976482 
 1057000        2  2.1089005e-28       3.701393 
 1058000        2   2.109049e-28       3.705129 
 1059000        2  2.1090284e-28       3.708871 
 1060000        2  2.1089567e-28      3.7126025 
 1061000        2  2.1089362e-28      3.7163575 
 1062000        2  2.1090874e-28      3.7200923 
 1063000        2  2.1090669e-28      3.7238105 
 1064000        2   2.109052e-28       3.727523 
 1065000        2  2.1090315e-28      3.7312474 
 1066000        2  2.1089569e-28      3.7349679 
 1067000        2  2.1089392e-28      3.7387461 
 1068000        2  2.1089215e-28        3.74247 
 1069000        2  2.1090699e-28      3.7461888 
 1070000        2  2.1089954e-28      3.7499295 
 1071000        2  2.1089777e-28      3.7536447 
 1072000        2   2.109014e-28      3.7574195 
 1073000        2  2.1091084e-28      3.7611363 
 1074000        2  2.1089217e-28      3.7648582 
 1075000        2   2.109073e-28      3.7685906 
 1076000        2  2.1090524e-28      3.7723332 
 1077000        2  2.1089779e-28      3.7760873 
 1078000        2  2.1089601e-28      3.7798485 
 1079000        2  2.1091114e-28      3.7835755 
 1080000        2  2.1089247e-28       3.787323 
 1081000        2   2.108907e-28      3.7910614 
 1082000        2  2.1090555e-28      3.7948203 
 1083000        2  2.1090349e-28      3.7985926 
 1084000        2  2.1089632e-28      3.8023343 
 1085000        2  2.1089455e-28      3.8060828 
 1086000        2  2.1090939e-28      3.8098187 
 1087000        2  2.1089072e-28      3.8135469 
 1088000        2  2.1090016e-28      3.8172899 
 1089000        2   2.109038e-28      3.8210728 
 1090000        2  2.1089634e-28      3.8248079 
 1091000        2  2.1089457e-28      3.8285296 
 1092000        2   2.109097e-28       3.832263 
 1093000        2  2.1090764e-28      3.8360005 
 1094000        2  2.1088925e-28      3.8397615 
 1095000        2  2.1089841e-28      3.8435035 
 1096000        2  2.1090204e-28      3.8472364 
 1097000        2  2.1089487e-28        3.85097 
 1098000        2   2.108931e-28      3.8546906 
 1099000        2  2.1090795e-28      3.8584798 
 1100000        2  2.1090589e-28      3.8622083 
 1101000        2  2.1089872e-28      3.8659495 
 1102000        2  2.1090235e-28      3.8696869 
 1103000        2  2.1091179e-28      3.8734135 
 1104000        2  2.1089312e-28      3.8771789 
 1105000        2  2.1089135e-28      3.8809055 
 1106000        2  2.1090619e-28      3.8846196 
 1107000        2  2.1089874e-28      3.8883329 
 1108000        2  2.1089697e-28      3.8920548 
 1109000        2   2.108952e-28      3.8957708 
 1110000        2  2.1091004e-28      3.8995656 
 1111000        2  2.1089137e-28      3.9032829 
 1112000        2   2.109065e-28      3.9070058 
 1113000        2  2.1090444e-28      3.9107235 
 1114000        2  2.1089699e-28      3.9144385 
 1115000        2  2.1089522e-28      3.9182035 
 1116000        2  2.1091034e-28      3.9219592 
 1117000        2  2.1089167e-28      3.9256775 
 1118000        2   2.108899e-28      3.9294168 
 1119000        2  2.1090475e-28      3.9331865 
 1120000        2  2.1089729e-28       3.937063 
 1121000        2  2.1089552e-28       3.941554 
 1122000        2  2.1089375e-28      3.9458838 
 1123000        2  2.1090859e-28      3.9496636 
 1124000        2  2.1088992e-28      3.9536292 
 1125000        2  2.1089936e-28      3.9574058 
 1126000        2    2.10903e-28      3.9612146 
 1127000        2  2.1089554e-28      3.9649912 
 1128000        2  2.1089377e-28      3.9687634 
 1129000        2   2.109089e-28      3.9725834 
 1130000        2  2.1090684e-28      3.9763982 
 1131000        2  2.1089938e-28      3.9801591 
 1132000        2  2.1089761e-28      3.9839159 
 1133000        2  2.1091274e-28      3.9876608 
 1134000        2  2.1089407e-28      3.9914157 
 1135000        2   2.108923e-28      3.9952286 
 1136000        2  2.1090715e-28      4.0186494 
 1137000        2  2.1090509e-28      4.0415098 
 1138000        2  2.1089792e-28      4.0632165 
 1139000        2  2.1090155e-28      4.0864974 
 1140000        2  2.1091099e-28      4.1096307 
 1141000        2  2.1089232e-28      4.1329469 
 1142000        2  2.1090745e-28       4.156323 
 1143000        2  2.1090539e-28      4.1821626 
 1144000        2  2.1089794e-28      4.2060507 
 1145000        2  2.1089617e-28      4.2290747 
 1146000        2   2.108944e-28      4.2526701 
 1147000        2  2.1090924e-28      4.2769236 
 1148000        2  2.1089057e-28      4.3000883 
 1149000        2   2.109057e-28      4.3228215 
 1150000        2  2.1090364e-28      4.3497871 
 1151000        2  2.1089619e-28      4.3577186 
 1152000        2  2.1089442e-28      4.3635058 
 1153000        2  2.1090954e-28       4.369291 
 1154000        2  2.1090749e-28      4.3750891 
 1155000        2    2.10906e-28      4.3804256 
 1156000        2  2.1090395e-28      4.3859187 
 1157000        2  2.1089649e-28      4.3903066 
 1158000        2  2.1089472e-28      4.3940613 
 1159000        2  2.1089295e-28      4.3978546 
 1160000        2  2.1090779e-28      4.4016312 
 1161000        2  2.1088912e-28      4.4053839 
 1162000        2  2.1089857e-28       4.409149 
 1163000        2   2.109022e-28      4.4130781 
 1164000        2  2.1089474e-28      4.4168567 
 1165000        2  2.1089297e-28       4.420661 
 1166000        2   2.109081e-28      4.4244789 
 1167000        2  2.1090604e-28      4.4282489 
 1168000        2  2.1089859e-28       4.432032 
 1169000        2  2.1089681e-28      4.4358138 
 1170000        2  2.1091194e-28      4.4396942 
 1171000        2  2.1089327e-28      4.4434558 
 1172000        2   2.108915e-28       4.447245 
 1173000        2  2.1090635e-28        4.45103 
 1174000        2  2.1090429e-28      4.4548224 
 1175000        2  2.1089712e-28      4.4586245 
 1176000        2  2.1089535e-28      4.4623888 
 1177000        2  2.1091019e-28      4.4661527 
 1178000        2  2.1089152e-28      4.4699106 
 1179000        2  2.1090665e-28      4.4736755 
 1180000        2   2.109046e-28      4.4774341 
 1181000        2  2.1089714e-28      4.4812336 
 1182000        2  2.1089537e-28      4.4849965 
 1183000        2   2.109105e-28      4.4887505 
 1184000        2  2.1090844e-28      4.4924989 
 1185000        2  2.1089005e-28      4.4962829 
 1186000        2   2.109049e-28       4.500092 
 1187000        2  2.1090284e-28      4.5038487 
 1188000        2  2.1089567e-28      4.5075989 
 1189000        2  2.1089362e-28      4.5113458 
 1190000        2  2.1090874e-28      4.5150936 
 1191000        2  2.1090669e-28      4.5189096 
 1192000        2   2.109052e-28      4.5226839 
 1193000        2  2.1090315e-28       4.526439 
 1194000        2  2.1089569e-28      4.5302081 
 1195000        2  2.1089392e-28      4.5339545 
 1196000        2  2.1089215e-28      4.5377169 
 1197000        2  2.1090699e-28      4.5414831 
 1198000        2  2.1089954e-28      4.5452462 
 1199000        2  2.1089777e-28      4.5489906 
 1200000        2   2.109014e-28      4.5527303 
 1201000        2  2.1091084e-28      4.5564835 
 1202000        2  2.1089217e-28      4.5602767 
 1203000        2   2.109073e-28      4.5640221 
 1204000        2  2.1090524e-28      4.5677649 
 1205000        2  2.1089779e-28       4.571513 
 1206000        2  2.1089601e-28      4.5752553 
 1207000        2  2.1091114e-28       4.579051 
 1208000        2  2.1089247e-28      4.5828074 
 1209000        2   2.108907e-28      4.5865539 
 1210000        2  2.1090555e-28      4.5903155 
 1211000        2  2.1090349e-28      4.5940804 
 1212000        2  2.1089632e-28      4.5978386 
 1213000        2  2.1089455e-28      4.6015978 
 1214000        2  2.1090939e-28      4.6053483 
 1215000        2  2.1089072e-28      4.6091123 
 1216000        2  2.1090016e-28       4.612882 
 1217000        2   2.109038e-28      4.6166437 
 1218000        2  2.1089634e-28      4.6204738 
 1219000        2  2.1089457e-28      4.6242746 
 1220000        2   2.109097e-28      4.6280223 
 1221000        2  2.1090764e-28      4.6317627 
 1222000        2  2.1088925e-28      4.6355334 
 1223000        2  2.1089841e-28       4.639389 
 1224000        2  2.1090204e-28      4.6442268 
 1225000        2  2.1089487e-28      4.6481167 
 1226000        2   2.108931e-28      4.6518821 
 1227000        2  2.1090795e-28      4.6556276 
 1228000        2  2.1090589e-28      4.6594477 
 1229000        2  2.1089872e-28      4.6632117 
 1230000        2  2.1090235e-28      4.6669649 
 1231000        2  2.1091179e-28      4.6707032 
 1232000        2  2.1089312e-28        4.67445 
 1233000        2  2.1089135e-28      4.6782285 
 1234000        2  2.1090619e-28      4.6820406 
 1235000        2  2.1089874e-28      4.6862029 
 1236000        2  2.1089697e-28      4.6899603 
 1237000        2   2.108952e-28      4.6936939 
 1238000        2  2.1091004e-28      4.6974311 
 1239000        2  2.1089137e-28      4.7012256 
 1240000        2   2.109065e-28      4.7049788 
 1241000        2  2.1090444e-28       4.708715 
 1242000        2  2.1089699e-28      4.7125117 
 1243000        2  2.1089522e-28      4.7162633 
 1244000        2  2.1091034e-28      4.7200564 
 1245000        2  2.1089167e-28      4.7238501 
 1246000        2   2.108899e-28      4.7276023 
 1247000        2  2.1090475e-28      4.7313609 
 1248000        2  2.1089729e-28      4.7351108 
 1249000        2  2.1089552e-28      4.7389129 
 1250000        2  2.1089375e-28      4.7426613 
 1251000        2  2.1090859e-28      4.7464153 
 1252000        2  2.1088992e-28      4.7501897 
 1253000        2  2.1089936e-28      4.7539585 
 1254000        2    2.10903e-28      4.7577197 
 1255000        2  2.1089554e-28       4.761529 
 1256000        2  2.1089377e-28      4.7652829 
 1257000        2   2.109089e-28       4.769038 
 1258000        2  2.1090684e-28      4.7727765 
 1259000        2  2.1089938e-28      4.7765452 
 1260000        2  2.1089761e-28      4.7803539 
 1261000        2  2.1091274e-28      4.7841418 
 1262000        2  2.1089407e-28      4.7879043 
 1263000        2   2.108923e-28      4.7916568 
 1264000        2  2.1090715e-28      4.7954184 
 1265000        2  2.1090509e-28      4.7991669 
 1266000        2  2.1089792e-28      4.8029148 
 1267000        2  2.1090155e-28      4.8067002 
 1268000        2  2.1091099e-28      4.8104586 
 1269000        2  2.1089232e-28      4.8142236 
 1270000        2  2.1090745e-28      4.8179814 
 1271000        2  2.1090539e-28      4.8217897 
 1272000        2  2.1089794e-28      4.8255535 
 1273000        2  2.1089617e-28      4.8293035 
 1274000        2   2.108944e-28      4.8330619 
 1275000        2  2.1090924e-28      4.8367958 
 1276000        2  2.1089057e-28      4.8405894 
 1277000        2   2.109057e-28      4.8443382 
 1278000        2  2.1090364e-28      4.8480931 
 1279000        2  2.1089619e-28      4.8518467 
 1280000        2  2.1089442e-28       4.855627 
 1281000        2  2.1090954e-28      4.8594292 
 1282000        2  2.1090749e-28      4.8632011 
 1283000        2    2.10906e-28      4.8669722 
 1284000        2  2.1090395e-28      4.8707321 
 1285000        2  2.1089649e-28      4.8745008 
 1286000        2  2.1089472e-28      4.8782618 
 1287000        2  2.1089295e-28      4.8820754 
 1288000        2  2.1090779e-28      4.8858393 
 1289000        2  2.1088912e-28      4.8896018 
 1290000        2  2.1089857e-28      4.8933786 
 1291000        2   2.109022e-28      4.8971484 
 1292000        2  2.1089474e-28      4.9009534 
 1293000        2  2.1089297e-28      4.9047351 
 1294000        2   2.109081e-28      4.9085025 
 1295000        2  2.1090604e-28      4.9122719 
 1296000        2  2.1089859e-28      4.9160583 
 1297000        2  2.1089681e-28      4.9198885 
 1298000        2  2.1091194e-28       4.923677 
 1299000        2  2.1089327e-28      4.9274246 
 1300000        2   2.108915e-28      4.9311965 
 1301000        2  2.1090635e-28      4.9349524 
 1302000        2  2.1090429e-28       4.938707 
 1303000        2  2.1089712e-28      4.9425152 
 1304000        2  2.1089535e-28      4.9463009 
 1305000        2  2.1091019e-28      4.9500857 
 1306000        2  2.1089152e-28      4.9538626 
 1307000        2  2.1090665e-28      4.9577607 
 1308000        2   2.109046e-28      4.9623792 
 1309000        2  2.1089714e-28      4.9661538 
 1310000        2  2.1089537e-28      4.9699051 
 1311000        2   2.109105e-28       4.973671 
 1312000        2  2.1090844e-28      4.9778176 
 1313000        2  2.1089005e-28      4.9815826 
 1314000        2   2.109049e-28      4.9853474 
 1315000        2  2.1090284e-28      4.9891195 
 1316000        2  2.1089567e-28      4.9928905 
 1317000        2  2.1089362e-28      4.9970678 
 1318000        2  2.1090874e-28      5.0008257 
 1319000        2  2.1090669e-28      5.0045806 
 1320000        2   2.109052e-28      5.0083413 
 1321000        2  2.1090315e-28       5.012095 
 1322000        2  2.1089569e-28      5.0158397 
 1323000        2  2.1089392e-28      5.0195649 
 1324000        2  2.1089215e-28      5.0233255 
 1325000        2  2.1090699e-28      5.0270593 
 1326000        2  2.1089954e-28       5.030779 
 1327000        2  2.1089777e-28      5.0345097 
 1328000        2   2.109014e-28      5.0382455 
 1329000        2  2.1091084e-28      5.0419723 
 1330000        2  2.1089217e-28      5.0456909 
 1331000        2   2.109073e-28      5.0494229 
 1332000        2  2.1090524e-28      5.0531476 
 1333000        2  2.1089779e-28      5.0568757 
 1334000        2  2.1089601e-28      5.0606376 
 1335000        2  2.1091114e-28      5.0643851 
 1336000        2  2.1089247e-28       5.068118 
 1337000        2   2.108907e-28      5.0718493 
 1338000        2  2.1090555e-28      5.0755756 
 1339000        2  2.1090349e-28      5.0793063 
 1340000        2  2.1089632e-28      5.0830882 
 1341000        2  2.1089455e-28      5.0868398 
 1342000        2  2.1090939e-28      5.0905744 
 1343000        2  2.1089072e-28      5.0943288 
 1344000        2  2.1090016e-28      5.0980788 
 1345000        2   2.109038e-28      5.1018668 
 1346000        2  2.1089634e-28        5.10561 
 1347000        2  2.1089457e-28      5.1093475 
 1348000        2   2.109097e-28       5.113092 
 1349000        2  2.1090764e-28       5.116833 
 1350000        2  2.1088925e-28      5.1206118 
 1351000        2  2.1089841e-28      5.1243832 
 1352000        2  2.1090204e-28      5.1281292 
 1353000        2  2.1089487e-28      5.1318672 
 1354000        2   2.108931e-28      5.1355998 
 1355000        2  2.1090795e-28       5.139333 
 1356000        2  2.1090589e-28      5.1431142 
 1357000        2  2.1089872e-28      5.1468673 
 1358000        2  2.1090235e-28      5.1506194 
 1359000        2  2.1091179e-28      5.1543683 
 1360000        2  2.1089312e-28      5.1581165 
 1361000        2  2.1089135e-28       5.161918 
 1362000        2  2.1090619e-28      5.1656616 
 1363000        2  2.1089874e-28      5.1693929 
 1364000        2  2.1089697e-28      5.1731199 
 1365000        2   2.108952e-28      5.1768462 
 1366000        2  2.1091004e-28      5.1806095 
 1367000        2  2.1089137e-28      5.1843563 
 1368000        2   2.109065e-28       5.188092 
 1369000        2  2.1090444e-28      5.1918181 
 1370000        2  2.1089699e-28      5.1955335 
 1371000        2  2.1089522e-28      5.1992563 
 1372000        2  2.1091034e-28      5.2030299 
 1373000        2  2.1089167e-28      5.2067557 
 1374000        2   2.108899e-28      5.2104767 
 1375000        2  2.1090475e-28      5.2141943 
 1376000        2  2.1089729e-28      5.2179203 
 1377000        2  2.1089552e-28      5.2216882 
 1378000        2  2.1089375e-28        5.22546 
 1379000        2  2.1090859e-28      5.2291886 
 1380000        2  2.1088992e-28      5.2329208 
 1381000        2  2.1089936e-28      5.2366318 
 1382000        2    2.10903e-28      5.2403496 
 1383000        2  2.1089554e-28      5.2441185 
 1384000        2  2.1089377e-28      5.2478412 
 1385000        2   2.109089e-28      5.2515605 
 1386000        2  2.1090684e-28       5.255314 
 1387000        2  2.1089938e-28      5.2590578 
 1388000        2  2.1089761e-28      5.2628502 
 1389000        2  2.1091274e-28      5.2665825 
 1390000        2  2.1089407e-28      5.2703301 
 1391000        2   2.108923e-28      5.2740761 
 1392000        2  2.1090715e-28       5.277828 
 1393000        2  2.1090509e-28      5.2816097 
 1394000        2  2.1089792e-28      5.2853644 
 1395000        2  2.1090155e-28      5.2891401 
 1396000        2  2.1091099e-28      5.2929026 
 1397000        2  2.1089232e-28      5.2966369 
 1398000        2  2.1090745e-28      5.3003744 
 1399000        2  2.1090539e-28      5.3041235 
 1400000        2  2.1089794e-28      5.3078742 
 1401000        2  2.1089617e-28      5.3116115 
 1402000        2   2.108944e-28      5.3153661 
 1403000        2  2.1090924e-28       5.319111 
 1404000        2  2.1089057e-28      5.3229572 
 1405000        2   2.109057e-28      5.3267015 
 1406000        2  2.1090364e-28      5.3304273 
 1407000        2  2.1089619e-28      5.3341508 
 1408000        2  2.1089442e-28      5.3378889 
 1409000        2  2.1090954e-28       5.341626 
 1410000        2  2.1090749e-28       5.345355 
 1411000        2    2.10906e-28      5.3490822 
 1412000        2  2.1090395e-28       5.352792 
 1413000        2  2.1089649e-28       5.356514 
 1414000        2  2.1089472e-28      5.3602351 
 1415000        2  2.1089295e-28      5.3640229 
 1416000        2  2.1090779e-28      5.3677467 
 1417000        2  2.1088912e-28      5.3714722 
 1418000        2  2.1089857e-28      5.3751912 
 1419000        2   2.109022e-28       5.378917 
 1420000        2  2.1089474e-28       5.382699 
 1421000        2  2.1089297e-28      5.3864246 
 1422000        2   2.109081e-28       5.390154 
 1423000        2  2.1090604e-28      5.3938768 
 1424000        2  2.1089859e-28      5.3976077 
 1425000        2  2.1089681e-28      5.4013702 
 1426000        2  2.1091194e-28      5.4051298 
 1427000        2  2.1089327e-28      5.4088477 
 1428000        2   2.108915e-28      5.4125724 
 1429000        2  2.1090635e-28      5.4163333 
 1430000        2  2.1090429e-28      5.4200799 
 1431000        2  2.1089712e-28      5.4238886 
 1432000        2  2.1089535e-28      5.4276377 
 1433000        2  2.1091019e-28      5.4313889 
 1434000        2  2.1089152e-28      5.4351437 
 1435000        2  2.1090665e-28      5.4388954 
 1436000        2   2.109046e-28      5.4426804 
 1437000        2  2.1089714e-28      5.4464355 
 1438000        2  2.1089537e-28      5.4501947 
 1439000        2   2.109105e-28      5.4539415 
 1440000        2  2.1090844e-28      5.4576785 
 1441000        2  2.1089005e-28      5.4614202 
 1442000        2   2.109049e-28      5.4651519 
 1443000        2  2.1090284e-28      5.4689476 
 1444000        2  2.1089567e-28      5.4726776 
 1445000        2  2.1089362e-28      5.4764267 
 1446000        2  2.1090874e-28      5.4801983 
 1447000        2  2.1090669e-28      5.4839713 
 1448000        2   2.109052e-28       5.487705 
 1449000        2  2.1090315e-28      5.4914323 
 1450000        2  2.1089569e-28      5.4951493 
 1451000        2  2.1089392e-28      5.4988684 
 1452000        2  2.1089215e-28      5.5026383 
 1453000        2  2.1090699e-28      5.5063712 
 1454000        2  2.1089954e-28      5.5100841 
 1455000        2  2.1089777e-28       5.513818 
 1456000        2   2.109014e-28      5.5175307 
 1457000        2  2.1091084e-28      5.5212623 
 1458000        2  2.1089217e-28       5.525029 
 1459000        2   2.109073e-28      5.5287511 
 1460000        2  2.1090524e-28      5.5324737 
 1461000        2  2.1089779e-28      5.5361938 
 1462000        2  2.1089601e-28      5.5399189 
 1463000        2  2.1091114e-28      5.5437001 
 1464000        2  2.1089247e-28      5.5474216 
 1465000        2   2.108907e-28      5.5511432 
 1466000        2  2.1090555e-28      5.5548865 
 1467000        2  2.1090349e-28      5.5586044 
 1468000        2  2.1089632e-28      5.5623683 
 1469000        2  2.1089455e-28      5.5660991 
 1470000        2  2.1090939e-28      5.5698247 
 1471000        2  2.1089072e-28       5.573541 
 1472000        2  2.1090016e-28      5.5773362 
 1473000        2   2.109038e-28      5.5810941 
 1474000        2  2.1089634e-28      5.5848868 
 1475000        2  2.1089457e-28      5.5886125 
 1476000        2   2.109097e-28      5.5923747 
 1477000        2  2.1090764e-28      5.5965834 
 1478000        2  2.1088925e-28      5.6003333 
 1479000        2  2.1089841e-28      5.6041174 
 1480000        2  2.1090204e-28      5.6078594 
 1481000        2  2.1089487e-28      5.6116051 
 1482000        2   2.108931e-28      5.6153502 
 1483000        2  2.1090795e-28      5.6190918 
 1484000        2  2.1090589e-28       5.622855 
 1485000        2  2.1089872e-28      5.6265945 
 1486000        2  2.1090235e-28        5.63038 
 1487000        2  2.1091179e-28      5.6341526 
 1488000        2  2.1089312e-28      5.6379049 
 1489000        2  2.1089135e-28      5.6416805 
 1490000        2  2.1090619e-28      5.6454325 
 1491000        2  2.1089874e-28      5.6491842 
 1492000        2  2.1089697e-28      5.6529139 
 1493000        2   2.108952e-28      5.6566505 
 1494000        2  2.1091004e-28      5.6603872 
 1495000        2  2.1089137e-28      5.6642591 
 1496000        2   2.109065e-28      5.6680057 
 1497000        2  2.1090444e-28      5.6717498 
 1498000        2  2.1089699e-28      5.6754867 
 1499000        2  2.1089522e-28      5.6792139 
 1500000        2  2.1091034e-28      5.6829656 
 1501000        2  2.1089167e-28      5.6866953 
 1502000        2   2.108899e-28      5.6904358 
 1503000        2  2.1090475e-28      5.6941747 
 1504000        2  2.1089729e-28      5.6979113 
 1505000        2  2.1089552e-28      5.7016278 
 1506000        2  2.1089375e-28      5.7054127 
 1507000        2  2.1090859e-28      5.7091318 
 1508000        2  2.1088992e-28      5.7128551 
 1509000        2  2.1089936e-28      5.7165811 
 1510000        2    2.10903e-28      5.7203178 
 1511000        2  2.1089554e-28      5.7241208 
 1512000        2  2.1089377e-28      5.7278585 
 1513000        2   2.109089e-28      5.7315833 
 1514000        2  2.1090684e-28      5.7353003 
 1515000        2  2.1089938e-28      5.7390379 
 1516000        2  2.1089761e-28      5.7428267 
 1517000        2  2.1091274e-28      5.7465722 
 1518000        2  2.1089407e-28      5.7503214 
 1519000        2   2.108923e-28      5.7540711 
 1520000        2  2.1090715e-28       5.757818 
 1521000        2  2.1090509e-28      5.7615629 
 1522000        2  2.1089792e-28      5.7653597 
 1523000        2  2.1090155e-28      5.7691119 
 1524000        2  2.1091099e-28      5.7728602 
 1525000        2  2.1089232e-28      5.7766155 
 1526000        2  2.1090745e-28      5.7803551 
 1527000        2  2.1090539e-28      5.7841023 
 1528000        2  2.1089794e-28      5.7878573 
 1529000        2  2.1089617e-28      5.7916532 
 1530000        2   2.108944e-28      5.7954508 
 1531000        2  2.1090924e-28      5.7992599 
 1532000        2  2.1089057e-28      5.8038244 
 1533000        2   2.109057e-28      5.8075678 
 1534000        2  2.1090364e-28       5.811328 
 1535000        2  2.1089619e-28        5.81513 
 1536000        2  2.1089442e-28       5.819352 
 1537000        2  2.1090954e-28      5.8232724 
 1538000        2  2.1090749e-28      5.8270624 
 1539000        2    2.10906e-28      5.8308337 
 1540000        2  2.1090395e-28      5.8345876 
 1541000        2  2.1089649e-28      5.8383466 
 1542000        2  2.1089472e-28      5.8420863 
 1543000        2  2.1089295e-28      5.8458244 
 1544000        2  2.1090779e-28      5.8500744 
 1545000        2  2.1088912e-28      5.8538528 
 1546000        2  2.1089857e-28      5.8575748 
 1547000        2   2.109022e-28      5.8612907 
 1548000        2  2.1089474e-28      5.8651007 
 1549000        2  2.1089297e-28      5.8688467 
 1550000        2   2.109081e-28      5.8725787 
 1551000        2  2.1090604e-28      5.8763135 
 1552000        2  2.1089859e-28       5.880053 
 1553000        2  2.1089681e-28      5.8838606 
 1554000        2  2.1091194e-28      5.8876064 
 1555000        2  2.1089327e-28      5.8913485 
 1556000        2   2.108915e-28      5.8950845 
 1557000        2  2.1090635e-28      5.8988185 
 1558000        2  2.1090429e-28      5.9025931 
 1559000        2  2.1089712e-28      5.9063803 
 1560000        2  2.1089535e-28      5.9101393 
 1561000        2  2.1091019e-28      5.9138939 
 1562000        2  2.1089152e-28      5.9176337 
 1563000        2  2.1090665e-28      5.9213987 
 1564000        2   2.109046e-28      5.9252383 
 1565000        2  2.1089714e-28      5.9290343 
 1566000        2  2.1089537e-28      5.9327791 
 1567000        2   2.109105e-28       5.936667 
 1568000        2  2.1090844e-28      5.9404116 
 1569000        2  2.1089005e-28      5.9441597 
 1570000        2   2.109049e-28      5.9479126 
 1571000        2  2.1090284e-28      5.9516937 
 1572000        2  2.1089567e-28      5.9554575 
 1573000        2  2.1089362e-28      5.9592355 
 1574000        2  2.1090874e-28      5.9630262 
 1575000        2  2.1090669e-28      5.9667914 
 1576000        2   2.109052e-28      5.9705466 
 1577000        2  2.1090315e-28      5.9743044 
 1578000        2  2.1089569e-28      5.9780515 
 1579000        2  2.1089392e-28      5.9817847 
 1580000        2  2.1089215e-28      5.9855876 
 1581000        2  2.1090699e-28      5.9893351 
 1582000        2  2.1089954e-28      5.9930911 
 1583000        2  2.1089777e-28      5.9968321 
 1584000        2   2.109014e-28      6.0005538 
 1585000        2  2.1091084e-28      6.0043285 
 1586000        2  2.1089217e-28      6.0080511 
 1587000        2   2.109073e-28       6.011772 
 1588000        2  2.1090524e-28      6.0154957 
 1589000        2  2.1089779e-28      6.0192092 
 1590000        2  2.1089601e-28      6.0229805 
 1591000        2  2.1091114e-28      6.0267204 
 1592000        2  2.1089247e-28      6.0304503 
 1593000        2   2.108907e-28      6.0341718 
 1594000        2  2.1090555e-28      6.0378934 
 1595000        2  2.1090349e-28      6.0416164 
 1596000        2  2.1089632e-28      6.0453413 
 1597000        2  2.1089455e-28      6.0490672 
 1598000        2  2.1090939e-28       6.052785 
 1599000        2  2.1089072e-28      6.0565348 
 1600000        2  2.1090016e-28      6.0602758 
 1601000        2   2.109038e-28      6.0640532 
 1602000        2  2.1089634e-28      6.0677754 
 1603000        2  2.1089457e-28      6.0715227 
 1604000        2   2.109097e-28      6.0752591 
 1605000        2  2.1090764e-28      6.0789996 
 1606000        2  2.1088925e-28       6.082779 
 1607000        2  2.1089841e-28      6.0865301 
 1608000        2  2.1090204e-28      6.0902837 
 1609000        2  2.1089487e-28      6.0940469 
 1610000        2   2.108931e-28      6.0977979 
 1611000        2  2.1090795e-28      6.1015572 
 1612000        2  2.1090589e-28      6.1053111 
 1613000        2  2.1089872e-28      6.1090725 
 1614000        2  2.1090235e-28      6.1128836 
 1615000        2  2.1091179e-28      6.1166332 
 1616000        2  2.1089312e-28       6.120445 
 1617000        2  2.1089135e-28      6.1242604 
 1618000        2  2.1090619e-28      6.1280223 
 1619000        2  2.1089874e-28      6.1317721 
 1620000        2  2.1089697e-28      6.1355281 
 1621000        2   2.108952e-28      6.1392757 
 1622000        2  2.1091004e-28      6.1430756 
 1623000        2  2.1089137e-28      6.1468332 
 1624000        2   2.109065e-28      6.1505692 
 1625000        2  2.1090444e-28      6.1542994 
 1626000        2  2.1089699e-28      6.1580284 
 1627000        2  2.1089522e-28      6.1617581 
 1628000        2  2.1091034e-28        6.16555 
 1629000        2  2.1089167e-28      6.1692776 
 1630000        2   2.108899e-28      6.1730108 
 1631000        2  2.1090475e-28      6.1767293 
 1632000        2  2.1089729e-28      6.1804601 
 1633000        2  2.1089552e-28      6.1842233 
 1634000        2  2.1089375e-28      6.1879554 
 1635000        2  2.1090859e-28      6.1916834 
 1636000        2  2.1088992e-28      6.1954138 
 1637000        2  2.1089936e-28      6.1991554 
 1638000        2    2.10903e-28      6.2028892 
 1639000        2  2.1089554e-28      6.2066126 
 1640000        2  2.1089377e-28      6.2103334 
 1641000        2   2.109089e-28        6.21406 
 1642000        2  2.1090684e-28      6.2177807 
 1643000        2  2.1089938e-28      6.2215156 
 1644000        2  2.1089761e-28      6.2253471 
 1645000        2  2.1091274e-28      6.2291171 
 1646000        2  2.1089407e-28      6.2328764 
 1647000        2   2.108923e-28      6.2366284 
 1648000        2  2.1090715e-28      6.2403662 
 1649000        2  2.1090509e-28      6.2441908 
 1650000        2  2.1089792e-28      6.2479672 
 1651000        2  2.1090155e-28      6.2517155 
 1652000        2  2.1091099e-28      6.2554781 
 1653000        2  2.1089232e-28      6.2593908 
 1654000        2  2.1090745e-28      6.2631557 
 1655000        2  2.1090539e-28      6.2669095 
 1656000        2  2.1089794e-28      6.2706627 
 1657000        2  2.1089617e-28      6.2744258 
 1658000        2   2.108944e-28       6.278234 
 1659000        2  2.1090924e-28      6.2819938 
 1660000        2  2.1089057e-28      6.2857926 
 1661000        2   2.109057e-28      6.2895586 
 1662000        2  2.1090364e-28      6.2933342 
 1663000        2  2.1089619e-28      6.2971152 
 1664000        2  2.1089442e-28      6.3008849 
 1665000        2  2.1090954e-28      6.3046808 
 1666000        2  2.1090749e-28      6.3084204 
 1667000        2    2.10906e-28      6.3121736 
 1668000        2  2.1090395e-28      6.3159188 
 1669000        2  2.1089649e-28       6.319655 
 1670000        2  2.1089472e-28      6.3234577 
 1671000        2  2.1089295e-28      6.3272177 
 1672000        2  2.1090779e-28      6.3309674 
 1673000        2  2.1088912e-28      6.3347113 
 1674000        2  2.1089857e-28      6.3384581 
 1675000        2   2.109022e-28      6.3422113 
 1676000        2  2.1089474e-28      6.3459526 
 1677000        2  2.1089297e-28      6.3496884 
 1678000        2   2.109081e-28      6.3534448 
 1679000        2  2.1090604e-28      6.3571931 
 1680000        2  2.1089859e-28      6.3609424 
 1681000        2  2.1089681e-28      6.3647475 
 1682000        2  2.1091194e-28      6.3685103 
 1683000        2  2.1089327e-28       6.372261 
 1684000        2   2.108915e-28       6.376006 
 1685000        2  2.1090635e-28      6.3797548 
 1686000        2  2.1090429e-28      6.3835226 
 1687000        2  2.1089712e-28      6.3872726 
 1688000        2  2.1089535e-28      6.3910302 
 1689000        2  2.1091019e-28      6.3947849 
 1690000        2  2.1089152e-28      6.3985393 
 1691000        2  2.1090665e-28      6.4022827 
 1692000        2   2.109046e-28      6.4060348 
 1693000        2  2.1089714e-28      6.4097941 
 1694000        2  2.1089537e-28      6.4135583 
 1695000        2   2.109105e-28      6.4173183 
 1696000        2  2.1090844e-28      6.4210677 
 1697000        2  2.1089005e-28      6.4248206 
 1698000        2   2.109049e-28      6.4285546 
 1699000        2  2.1090284e-28       6.432291 
 1700000        2  2.1089567e-28      6.4360442 
 1701000        2  2.1089362e-28      6.4397977 
 1702000        2  2.1090874e-28      6.4435741 
 1703000        2  2.1090669e-28      6.4473309 
 1704000        2   2.109052e-28      6.4510996 
 1705000        2  2.1090315e-28      6.4548919 
 1706000        2  2.1089569e-28      6.4586698 
 1707000        2  2.1089392e-28      6.4624371 
 1708000        2  2.1089215e-28      6.4662497 
 1709000        2  2.1090699e-28      6.4699927 
 1710000        2  2.1089954e-28      6.4737448 
 1711000        2  2.1089777e-28      6.4775133 
 1712000        2   2.109014e-28      6.4813144 
 1713000        2  2.1091084e-28      6.4851211 
 1714000        2  2.1089217e-28      6.4888705 
 1715000        2   2.109073e-28      6.4926009 
 1716000        2  2.1090524e-28      6.4963199 
 1717000        2  2.1089779e-28      6.5000467 
 1718000        2  2.1089601e-28        6.50377 
 1719000        2  2.1091114e-28      6.5074942 
 1720000        2  2.1089247e-28      6.5112234 
 1721000        2   2.108907e-28      6.5149576 
 1722000        2  2.1090555e-28       6.518682 
 1723000        2  2.1090349e-28      6.5224114 
 1724000        2  2.1089632e-28      6.5262377 
 1725000        2  2.1089455e-28      6.5309612 
 1726000        2  2.1090939e-28      6.5347709 
 1727000        2  2.1089072e-28      6.5384999 
 1728000        2  2.1090016e-28      6.5422703 
 1729000        2   2.109038e-28      6.5462995 
 1730000        2  2.1089634e-28      6.5500605 
 1731000        2  2.1089457e-28       6.553822 
 1732000        2   2.109097e-28       6.558362 
 1733000        2  2.1090764e-28      6.5621642 
 1734000        2  2.1088925e-28      6.5659697 
 1735000        2  2.1089841e-28      6.5697062 
 1736000        2  2.1090204e-28      6.5734673 
 1737000        2  2.1089487e-28      6.5772189 
 1738000        2   2.108931e-28      6.5809794 
 1739000        2  2.1090795e-28      6.5847803 
 1740000        2  2.1090589e-28      6.5885546 
 1741000        2  2.1089872e-28       6.592668 
 1742000        2  2.1090235e-28      6.5969163 
 1743000        2  2.1091179e-28      6.6006753 
 1744000        2  2.1089312e-28      6.6044255 
 1745000        2  2.1089135e-28      6.6081738 
 1746000        2  2.1090619e-28      6.6119299 
 1747000        2  2.1089874e-28      6.6156771 
 1748000        2  2.1089697e-28      6.6194405 
 1749000        2   2.108952e-28      6.6231977 
 1750000        2  2.1091004e-28      6.6269527 
 1751000        2  2.1089137e-28      6.6306914 
 1752000        2   2.109065e-28      6.6344241 
 1753000        2  2.1090444e-28      6.6381551 
 1754000        2  2.1089699e-28      6.6418906 
 1755000        2  2.1089522e-28      6.6456232 
 1756000        2  2.1091034e-28      6.6493582 
 1757000        2  2.1089167e-28      6.6530923 
 1758000        2   2.108899e-28      6.6568276 
 1759000        2  2.1090475e-28      6.6605702 
 1760000        2  2.1089729e-28      6.6642949 
 1761000        2  2.1089552e-28       6.668014 
 1762000        2  2.1089375e-28      6.6717279 
 1763000        2  2.1090859e-28      6.6754504 
 1764000        2  2.1088992e-28      6.6791698 
 1765000        2  2.1089936e-28      6.6828935 
 1766000        2    2.10903e-28      6.6866026 
 1767000        2  2.1089554e-28       6.690326 
 1768000        2  2.1089377e-28      6.6940526 
 1769000        2   2.109089e-28      6.6977926 
 1770000        2  2.1090684e-28      6.7015241 
 1771000        2  2.1089938e-28      6.7052388 
 1772000        2  2.1089761e-28      6.7089633 
 1773000        2  2.1091274e-28      6.7126722 
 1774000        2  2.1089407e-28      6.7163957 
 1775000        2   2.108923e-28      6.7201229 
 1776000        2  2.1090715e-28      6.7238921 
 1777000        2  2.1090509e-28      6.7276514 
 1778000        2  2.1089792e-28      6.7314005 
 1779000        2  2.1090155e-28      6.7351353 
 1780000        2  2.1091099e-28      6.7388671 
 1781000        2  2.1089232e-28      6.7425966 
 1782000        2  2.1090745e-28      6.7463931 
 1783000        2  2.1090539e-28      6.7501319 
 1784000        2  2.1089794e-28       6.753868 
 1785000        2  2.1089617e-28      6.7575979 
 1786000        2   2.108944e-28      6.7613321 
 1787000        2  2.1090924e-28      6.7650682 
 1788000        2  2.1089057e-28      6.7687883 
 1789000        2   2.109057e-28      6.7725306 
 1790000        2  2.1090364e-28      6.7762966 
 1791000        2  2.1089619e-28      6.7800472 
 1792000        2  2.1089442e-28      6.7837788 
 1793000        2  2.1090954e-28      6.7875602 
 1794000        2  2.1090749e-28       6.791282 
 1795000        2    2.10906e-28      6.7950162 
 1796000        2  2.1090395e-28      6.7987389 
 1797000        2  2.1089649e-28      6.8024714 
 1798000        2  2.1089472e-28      6.8062061 
 1799000        2  2.1089295e-28      6.8099405 
 1800000        2  2.1090779e-28      6.8136694 
 1801000        2  2.1088912e-28      6.8174054 
 1802000        2  2.1089857e-28      6.8211406 
 1803000        2   2.109022e-28      6.8248931 
 1804000        2  2.1089474e-28       6.828608 
 1805000        2  2.1089297e-28      6.8323267 
 1806000        2   2.109081e-28      6.8360435 
 1807000        2  2.1090604e-28       6.839762 
 1808000        2  2.1089859e-28      6.8434847 
 1809000        2  2.1089681e-28      6.8472897 
 1810000        2  2.1091194e-28      6.8510264 
 1811000        2  2.1089327e-28      6.8547448 
 1812000        2   2.108915e-28      6.8584669 
 1813000        2  2.1090635e-28      6.8621863 
 1814000        2  2.1090429e-28      6.8659535 
 1815000        2  2.1089712e-28      6.8696759 
 1816000        2  2.1089535e-28      6.8733985 
 1817000        2  2.1091019e-28      6.8771253 
 1818000        2  2.1089152e-28      6.8808474 
 1819000        2  2.1090665e-28       6.884612 
 1820000        2   2.109046e-28      6.8883814 
 1821000        2  2.1089714e-28      6.8921172 
 1822000        2  2.1089537e-28      6.8958528 
 1823000        2   2.109105e-28      6.8995756 
 1824000        2  2.1090844e-28      6.9033254 
 1825000        2  2.1089005e-28      6.9071125 
 1826000        2   2.109049e-28      6.9108746 
 1827000        2  2.1090284e-28      6.9145992 
 1828000        2  2.1089567e-28      6.9183534 
 1829000        2  2.1089362e-28      6.9221029 
 1830000        2  2.1090874e-28      6.9258592 
 1831000        2  2.1090669e-28      6.9295984 
 1832000        2   2.109052e-28      6.9333302 
 1833000        2  2.1090315e-28      6.9371148 
 1834000        2  2.1089569e-28      6.9408619 
 1835000        2  2.1089392e-28      6.9446021 
 1836000        2  2.1089215e-28       6.948344 
 1837000        2  2.1090699e-28      6.9520888 
 1838000        2  2.1089954e-28      6.9558448 
 1839000        2  2.1089777e-28      6.9595954 
 1840000        2   2.109014e-28        6.96336 
 1841000        2  2.1091084e-28      6.9671128 
 1842000        2  2.1089217e-28      6.9708575 
 1843000        2   2.109073e-28      6.9746019 
 1844000        2  2.1090524e-28      6.9783495 
 1845000        2  2.1089779e-28      6.9821043 
 1846000        2  2.1089601e-28      6.9858471 
 1847000        2  2.1091114e-28      6.9895862 
 1848000        2  2.1089247e-28      6.9933323 
 1849000        2   2.108907e-28      6.9970539 
 1850000        2  2.1090555e-28      7.0007828 
 1851000        2  2.1090349e-28      7.0045074 
 1852000        2  2.1089632e-28      7.0082332 
 1853000        2  2.1089455e-28      7.0119591 
 1854000        2  2.1090939e-28      7.0156845 
 1855000        2  2.1089072e-28      7.0194142 
 1856000        2  2.1090016e-28      7.0231422 
 1857000        2   2.109038e-28      7.0270008 
 1858000        2  2.1089634e-28      7.0315473 
 1859000        2  2.1089457e-28      7.0354604 
 1860000        2   2.109097e-28      7.0391993 
 1861000        2  2.1090764e-28      7.0429666 
 1862000        2  2.1088925e-28      7.0469714 
 1863000        2  2.1089841e-28      7.0507445 
 1864000        2  2.1090204e-28      7.0553598 
 1865000        2  2.1089487e-28      7.0591312 
 1866000        2   2.108931e-28      7.0629143 
 1867000        2  2.1090795e-28      7.0666509 
 1868000        2  2.1090589e-28      7.0703822 
 1869000        2  2.1089872e-28       7.074129 
 1870000        2  2.1090235e-28      7.0778687 
 1871000        2  2.1091179e-28      7.0816094 
 1872000        2  2.1089312e-28      7.0853474 
 1873000        2  2.1089135e-28      7.0892669 
 1874000        2  2.1090619e-28      7.0930583 
 1875000        2  2.1089874e-28      7.0969125 
 1876000        2  2.1089697e-28      7.1006765 
 1877000        2   2.108952e-28      7.1044242 
 1878000        2  2.1091004e-28      7.1082472 
 1879000        2  2.1089137e-28      7.1121801 
 1880000        2   2.109065e-28      7.1159353 
 1881000        2  2.1090444e-28      7.1196811 
 1882000        2  2.1089699e-28      7.1234303 
 1883000        2  2.1089522e-28      7.1273094 
 1884000        2  2.1091034e-28      7.1310923 
 1885000        2  2.1089167e-28      7.1348444 
 1886000        2   2.108899e-28      7.1385781 
 1887000        2  2.1090475e-28      7.1424675 
 1888000        2  2.1089729e-28      7.1462654 
 1889000        2  2.1089552e-28      7.1500123 
 1890000        2  2.1089375e-28      7.1537349 
 1891000        2  2.1090859e-28       7.157457 
 1892000        2  2.1088992e-28      7.1612336 
 1893000        2  2.1089936e-28      7.1649554 
 1894000        2    2.10903e-28      7.1686804 
 1895000        2  2.1089554e-28      7.1724079 
 1896000        2  2.1089377e-28      7.1761506 
 1897000        2   2.109089e-28      7.1798675 
 1898000        2  2.1090684e-28       7.183586 
 1899000        2  2.1089938e-28      7.1873721 
 1900000        2  2.1089761e-28      7.1912329 
 1901000        2  2.1091274e-28      7.1949742 
 1902000        2  2.1089407e-28      7.1987084 
 1903000        2   2.108923e-28       7.202425 
 1904000        2  2.1090715e-28      7.2062389 
 1905000        2  2.1090509e-28      7.2100407 
 1906000        2  2.1089792e-28      7.2138416 
 1907000        2  2.1090155e-28      7.2175852 
 1908000        2  2.1091099e-28      7.2213353 
 1909000        2  2.1089232e-28      7.2251048 
 1910000        2  2.1090745e-28      7.2288889 
 1911000        2  2.1090539e-28      7.2326237 
 1912000        2  2.1089794e-28      7.2363705 
 1913000        2  2.1089617e-28       7.240124 
 1914000        2   2.108944e-28       7.243933 
 1915000        2  2.1090924e-28      7.2477619 
 1916000        2  2.1089057e-28      7.2515403 
 1917000        2   2.109057e-28      7.2552966 
 1918000        2  2.1090364e-28      7.2590478 
 1919000        2  2.1089619e-28      7.2627895 
 1920000        2  2.1089442e-28      7.2665293 
 1921000        2  2.1090954e-28      7.2702896 
 1922000        2  2.1090749e-28      7.2741654 
 1923000        2    2.10906e-28      7.2779213 
 1924000        2  2.1090395e-28      7.2816579 
 1925000        2  2.1089649e-28       7.285384 
 1926000        2  2.1089472e-28      7.2891097 
 1927000        2  2.1089295e-28      7.2928267 
 1928000        2  2.1090779e-28      7.2965474 
 1929000        2  2.1088912e-28      7.3002979 
 1930000        2  2.1089857e-28       7.304045 
 1931000        2   2.109022e-28      7.3078843 
 1932000        2  2.1089474e-28      7.3116049 
 1933000        2  2.1089297e-28      7.3153378 
 1934000        2   2.109081e-28      7.3190801 
 1935000        2  2.1090604e-28      7.3228184 
 1936000        2  2.1089859e-28      7.3266657 
 1937000        2  2.1089681e-28      7.3303926 
 1938000        2  2.1091194e-28      7.3341213 
 1939000        2  2.1089327e-28      7.3378665 
 1940000        2   2.108915e-28      7.3416006 
 1941000        2  2.1090635e-28      7.3453287 
 1942000        2  2.1090429e-28      7.3491544 
 1943000        2  2.1089712e-28      7.3528983 
 1944000        2  2.1089535e-28      7.3566156 
 1945000        2  2.1091019e-28       7.360338 
 1946000        2  2.1089152e-28      7.3640532 
 1947000        2  2.1090665e-28      7.3678765 
 1948000        2   2.109046e-28      7.3715932 
 1949000        2  2.1089714e-28      7.3753404 
 1950000        2  2.1089537e-28      7.3790717 
 1951000        2   2.109105e-28      7.3827937 
 1952000        2  2.1090844e-28      7.3867471 
 1953000        2  2.1089005e-28      7.3904941 
 1954000        2   2.109049e-28      7.3942112 
 1955000        2  2.1090284e-28      7.3979375 
 1956000        2  2.1089567e-28      7.4016872 
 1957000        2  2.1089362e-28       7.405421 
 1958000        2  2.1090874e-28      7.4092751 
 1959000        2  2.1090669e-28       7.413033 
 1960000        2   2.109052e-28       7.416762 
 1961000        2  2.1090315e-28      7.4204941 
 1962000        2  2.1089569e-28      7.4242336 
 1963000        2  2.1089392e-28      7.4279806 
 1964000        2  2.1089215e-28      7.4317588 
 1965000        2  2.1090699e-28      7.4355761 
 1966000        2  2.1089954e-28      7.4393146 
 1967000        2  2.1089777e-28      7.4430568 
 1968000        2   2.109014e-28      7.4468117 
 1969000        2  2.1091084e-28      7.4505757 
 1970000        2  2.1089217e-28      7.4543648 
 1971000        2   2.109073e-28      7.4581249 
 1972000        2  2.1090524e-28      7.4619106 
 1973000        2  2.1089779e-28      7.4656665 
 1974000        2  2.1089601e-28      7.4695306 
 1975000        2  2.1091114e-28      7.4732777 
 1976000        2  2.1089247e-28       7.477034 
 1977000        2   2.108907e-28      7.4808409 
 1978000        2  2.1090555e-28      7.4845661 
 1979000        2  2.1090349e-28      7.4883998 
 1980000        2  2.1089632e-28      7.4921305 
 1981000        2  2.1089455e-28        7.49586 
 1982000        2  2.1090939e-28      7.4996316 
 1983000        2  2.1089072e-28      7.5033731 
 1984000        2  2.1090016e-28      7.5071911 
 1985000        2   2.109038e-28      7.5109204 
 1986000        2  2.1089634e-28      7.5146553 
 1987000        2  2.1089457e-28       7.518394 
 1988000        2   2.109097e-28      7.5221344 
 1989000        2  2.1090764e-28       7.525883 
 1990000        2  2.1088925e-28      7.5297066 
 1991000        2  2.1089841e-28      7.5334336 
 1992000        2  2.1090204e-28      7.5371602 
 1993000        2  2.1089487e-28      7.5408981 
 1994000        2   2.108931e-28      7.5446182 
 1995000        2  2.1090795e-28      7.5485201 
 1996000        2  2.1090589e-28       7.552251 
 1997000        2  2.1089872e-28      7.5559698 
 1998000        2  2.1090235e-28      7.5597368 
 1999000        2  2.1091179e-28      7.5634927 
 2000000        2  2.1089312e-28      7.5673513 
Loop time of 7.56735 on 1 procs for 2000000 steps with 2 atoms, finish time Sun Apr 19 19:22:13 2026


Pair  time (%) = 3.12564 (41.3043)
Neigh time (%) = 0.00258158 (0.0341147)
Comm  time (%) = 0.0653856 (0.864048)
Outpt time (%) = 0.731312 (9.66404)
Other time (%) = 3.64243 (48.1335)

Nlocal:    2 ave 2 max 2 min
Histogram: 1 0 0 0 0 0 0 0 0 0
Nghost:    0 ave 0 max 0 min
Histogram: 1 0 0 0 0 0 0 0 0 0
Neighs:    1 ave 1 max 1 min
Histogram: 1 0 0 0 0 0 0 0 0 0

Total # of neighbors = 1
Ave neighs/atom = 0.5
Neighbor list builds = 5010
Dangerous builds = 0
