ITEM: TIMESTEP
0
ITEM: NUMBER OF ATOMS
2
ITEM: BOX BOUNDS ff ff ff
-1 1
-1 1
-1 1
ITEM: ATOMS id x y z vx vy vz omegax omegay omegaz 
2 -0.2 0.005 0 1 0 0 0 0 0 
1 0 0 0 0 0 0 0 0 0 
ITEM: TIMESTEP
1000
ITEM: NUMBER OF ATOMS
2
ITEM: BOX BOUNDS ff ff ff
-1 1
-1 1
-1 1
ITEM: ATOMS id x y z vx vy vz omegax omegay omegaz 
2 -0.19 0.005 0 1 0 0 0 0 0 
1 0 0 0 0 0 0 0 0 0 
ITEM: TIMESTEP
2000
ITEM: NUMBER OF ATOMS
2
ITEM: BOX BOUNDS ff ff ff
-1 1
-1 1
-1 1
ITEM: ATOMS id x y z vx vy vz omegax omegay omegaz 
2 -0.18 0.005 0 1 0 0 0 0 0 
1 0 0 0 0 0 0 0 0 0 
ITEM: TIMESTEP
3000
ITEM: NUMBER OF ATOMS
2
ITEM: BOX BOUNDS ff ff ff
-1 1
-1 1
-1 1
ITEM: ATOMS id x y z vx vy vz omegax omegay omegaz 
2 -0.17 0.005 0 1 0 0 0 0 0 
1 0 0 0 0 0 0 0 0 0 
ITEM: TIMESTEP
4000
ITEM: NUMBER OF ATOMS
2
ITEM: BOX BOUNDS ff ff ff
-1 1
-1 1
-1 1
ITEM: ATOMS id x y z vx vy vz omegax omegay omegaz 
2 -0.16 0.005 0 1 0 0 0 0 0 
1 0 0 0 0 0 0 0 0 0 
ITEM: TIMESTEP
5000
ITEM: NUMBER OF ATOMS
2
ITEM: BOX BOUNDS ff ff ff
-1 1
-1 1
-1 1
ITEM: ATOMS id x y z vx vy vz omegax omegay omegaz 
2 -0.15 0.005 0 1 0 0 0 0 0 
1 0 0 0 0 0 0 0 0 0 
ITEM: TIMESTEP
6000
ITEM: NUMBER OF ATOMS
2
ITEM: BOX BOUNDS ff ff ff
-1 1
-1 1
-1 1
ITEM: ATOMS id x y z vx vy vz omegax omegay omegaz 
2 -0.14 0.005 0 1 0 0 0 0 0 
1 0 0 0 0 0 0 0 0 0 
ITEM: TIMESTEP
7000
ITEM: NUMBER OF ATOMS
2
ITEM: BOX BOUNDS ff ff ff
-1 1
-1 1
-1 1
ITEM: ATOMS id x y z vx vy vz omegax omegay omegaz 
2 -0.13 0.005 0 1 0 0 0 0 0 
1 0 0 0 0 0 0 0 0 0 
ITEM: TIMESTEP
8000
ITEM: NUMBER OF ATOMS
2
ITEM: BOX BOUNDS ff ff ff
-1 1
-1 1
-1 1
ITEM: ATOMS id x y z vx vy vz omegax omegay omegaz 
2 -0.12 0.005 0 1 0 0 0 0 0 
1 0 0 0 0 0 0 0 0 0 
ITEM: TIMESTEP
9000
ITEM: NUMBER OF ATOMS
2
ITEM: BOX BOUNDS ff ff ff
-1 1
-1 1
-1 1
ITEM: ATOMS id x y z vx vy vz omegax omegay omegaz 
2 -0.11 0.005 0 1 0 0 0 0 0 
1 0 0 0 0 0 0 0 0 0 
ITEM: TIMESTEP
10000
ITEM: NUMBER OF ATOMS
2
ITEM: BOX BOUNDS ff ff ff
-1 1
-1 1
-1 1
ITEM: ATOMS id x y z vx vy vz omegax omegay omegaz 
2 -0.1 0.005 0 1 0 0 0 0 0 
1 0 0 0 0 0 0 0 0 0 
ITEM: TIMESTEP
11000
ITEM: NUMBER OF ATOMS
2
ITEM: BOX BOUNDS ff ff ff
-1 1
-1 1
-1 1
ITEM: ATOMS id x y z vx vy vz omegax omegay omegaz 
2 -0.09 0.005 0 1 0 0 0 0 0 
1 0 0 0 0 0 0 0 0 0 
ITEM: TIMESTEP
12000
ITEM: NUMBER OF ATOMS
2
ITEM: BOX BOUNDS ff ff ff
-1 1
-1 1
-1 1
ITEM: ATOMS id x y z vx vy vz omegax omegay omegaz 
2 -0.08 0.005 0 1 0 0 0 0 0 
1 0 0 0 0 0 0 0 0 0 
ITEM: TIMESTEP
13000
ITEM: NUMBER OF ATOMS
2
ITEM: BOX BOUNDS ff ff ff
-1 1
-1 1
-1 1
ITEM: ATOMS id x y z vx vy vz omegax omegay omegaz 
2 -0.07 0.005 0 1 0 0 0 0 0 
1 0 0 0 0 0 0 0 0 0 
ITEM: TIMESTEP
14000
ITEM: NUMBER OF ATOMS
2
ITEM: BOX BOUNDS ff ff ff
-1 1
-1 1
-1 1
ITEM: ATOMS id x y z vx vy vz omegax omegay omegaz 
2 -0.06 0.005 0 1 0 0 0 0 0 
1 0 0 0 0 0 0 0 0 0 
ITEM: TIMESTEP
15000
ITEM: NUMBER OF ATOMS
2
ITEM: BOX BOUNDS ff ff ff
-1 1
-1 1
-1 1
ITEM: ATOMS id x y z vx vy vz omegax omegay omegaz 
2 -0.05 0.005 0 1 0 0 0 0 0 
1 0 0 0 0 0 0 0 0 0 
ITEM: TIMESTEP
16000
ITEM: NUMBER OF ATOMS
2
ITEM: BOX BOUNDS ff ff ff
-1 1
-1 1
-1 1
ITEM: ATOMS id x y z vx vy vz omegax omegay omegaz 
2 -0.04 0.005 0 1 0 0 0 0 0 
1 0 0 0 0 0 0 0 0 0 
ITEM: TIMESTEP
17000
ITEM: NUMBER OF ATOMS
2
ITEM: BOX BOUNDS ff ff ff
-1 1
-1 1
-1 1
ITEM: ATOMS id x y z vx vy vz omegax omegay omegaz 
2 -0.03 0.005 0 1 0 0 0 0 0 
1 0 0 0 0 0 0 0 0 0 
ITEM: TIMESTEP
18000
ITEM: NUMBER OF ATOMS
2
ITEM: BOX BOUNDS ff ff ff
-1 1
-1 1
-1 1
ITEM: ATOMS id x y z vx vy vz omegax omegay omegaz 
2 -0.02 0.005 0 1 0 0 0 0 0 
1 0 0 0 0 0 0 0 0 0 
ITEM: TIMESTEP
19000
ITEM: NUMBER OF ATOMS
2
ITEM: BOX BOUNDS ff ff ff
-1 1
-1 1
-1 1
ITEM: ATOMS id x y z vx vy vz omegax omegay omegaz 
2 -0.0157371 0.00614255 0 0.380964 0.123708 0 0 0 -8.88312 
1 0.00573712 -0.00114255 0 0.619036 -0.123708 0 0 0 -8.88312 
ITEM: TIMESTEP
20000
ITEM: NUMBER OF ATOMS
2
ITEM: BOX BOUNDS ff ff ff
-1 1
-1 1
-1 1
ITEM: ATOMS id x y z vx vy vz omegax omegay omegaz 
1 0.0119275 -0.00237963 0 0.619036 -0.123708 0 0 0 -8.88312 
2 -0.0119275 0.00737963 0 0.380964 0.123708 0 0 0 -8.88312 
ITEM: TIMESTEP
21000
ITEM: NUMBER OF ATOMS
2
ITEM: BOX BOUNDS ff ff ff
-1 1
-1 1
-1 1
ITEM: ATOMS id x y z vx vy vz omegax omegay omegaz 
1 0.0181178 -0.00361672 0 0.619036 -0.123708 0 0 0 -8.88312 
2 -0.00811785 0.00861672 0 0.380964 0.123708 0 0 0 -8.88312 
ITEM: TIMESTEP
22000
ITEM: NUMBER OF ATOMS
2
ITEM: BOX BOUNDS ff ff ff
-1 1
-1 1
-1 1
ITEM: ATOMS id x y z vx vy vz omegax omegay omegaz 
1 0.0243082 -0.0048538 0 0.619036 -0.123708 0 0 0 -8.88312 
2 -0.00430821 0.0098538 0 0.380964 0.123708 0 0 0 -8.88312 
ITEM: TIMESTEP
23000
ITEM: NUMBER OF ATOMS
2
ITEM: BOX BOUNDS ff ff ff
-1 1
-1 1
-1 1
ITEM: ATOMS id x y z vx vy vz omegax omegay omegaz 
1 0.0304986 -0.00609088 0 0.619036 -0.123708 0 0 0 -8.88312 
2 -0.000498573 0.0110909 0 0.380964 0.123708 0 0 0 -8.88312 
ITEM: TIMESTEP
24000
ITEM: NUMBER OF ATOMS
2
ITEM: BOX BOUNDS ff ff ff
-1 1
-1 1
-1 1
ITEM: ATOMS id x y z vx vy vz omegax omegay omegaz 
1 0.0366889 -0.00732796 0 0.619036 -0.123708 0 0 0 -8.88312 
2 0.00331106 0.012328 0 0.380964 0.123708 0 0 0 -8.88312 
ITEM: TIMESTEP
25000
ITEM: NUMBER OF ATOMS
2
ITEM: BOX BOUNDS ff ff ff
-1 1
-1 1
-1 1
ITEM: ATOMS id x y z vx vy vz omegax omegay omegaz 
1 0.0428793 -0.00856505 0 0.619036 -0.123708 0 0 0 -8.88312 
2 0.0071207 0.013565 0 0.380964 0.123708 0 0 0 -8.88312 
ITEM: TIMESTEP
26000
ITEM: NUMBER OF ATOMS
2
ITEM: BOX BOUNDS ff ff ff
-1 1
-1 1
-1 1
ITEM: ATOMS id x y z vx vy vz omegax omegay omegaz 
1 0.0490697 -0.00980213 0 0.619036 -0.123708 0 0 0 -8.88312 
2 0.0109303 0.0148021 0 0.380964 0.123708 0 0 0 -8.88312 
ITEM: TIMESTEP
27000
ITEM: NUMBER OF ATOMS
2
ITEM: BOX BOUNDS ff ff ff
-1 1
-1 1
-1 1
ITEM: ATOMS id x y z vx vy vz omegax omegay omegaz 
1 0.05526 -0.0110392 0 0.619036 -0.123708 0 0 0 -8.88312 
2 0.01474 0.0160392 0 0.380964 0.123708 0 0 0 -8.88312 
ITEM: TIMESTEP
28000
ITEM: NUMBER OF ATOMS
2
ITEM: BOX BOUNDS ff ff ff
-1 1
-1 1
-1 1
ITEM: ATOMS id x y z vx vy vz omegax omegay omegaz 
1 0.0614504 -0.0122763 0 0.619036 -0.123708 0 0 0 -8.88312 
2 0.0185496 0.0172763 0 0.380964 0.123708 0 0 0 -8.88312 
ITEM: TIMESTEP
29000
ITEM: NUMBER OF ATOMS
2
ITEM: BOX BOUNDS ff ff ff
-1 1
-1 1
-1 1
ITEM: ATOMS id x y z vx vy vz omegax omegay omegaz 
1 0.0676407 -0.0135134 0 0.619036 -0.123708 0 0 0 -8.88312 
2 0.0223593 0.0185134 0 0.380964 0.123708 0 0 0 -8.88312 
ITEM: TIMESTEP
30000
ITEM: NUMBER OF ATOMS
2
ITEM: BOX BOUNDS ff ff ff
-1 1
-1 1
-1 1
ITEM: ATOMS id x y z vx vy vz omegax omegay omegaz 
1 0.0738311 -0.0147505 0 0.619036 -0.123708 0 0 0 -8.88312 
2 0.0261689 0.0197505 0 0.380964 0.123708 0 0 0 -8.88312 
ITEM: TIMESTEP
31000
ITEM: NUMBER OF ATOMS
2
ITEM: BOX BOUNDS ff ff ff
-1 1
-1 1
-1 1
ITEM: ATOMS id x y z vx vy vz omegax omegay omegaz 
1 0.0800215 -0.0159875 0 0.619036 -0.123708 0 0 0 -8.88312 
2 0.0299785 0.0209875 0 0.380964 0.123708 0 0 0 -8.88312 
ITEM: TIMESTEP
32000
ITEM: NUMBER OF ATOMS
2
ITEM: BOX BOUNDS ff ff ff
-1 1
-1 1
-1 1
ITEM: ATOMS id x y z vx vy vz omegax omegay omegaz 
1 0.0862118 -0.0172246 0 0.619036 -0.123708 0 0 0 -8.88312 
2 0.0337882 0.0222246 0 0.380964 0.123708 0 0 0 -8.88312 
ITEM: TIMESTEP
33000
ITEM: NUMBER OF ATOMS
2
ITEM: BOX BOUNDS ff ff ff
-1 1
-1 1
-1 1
ITEM: ATOMS id x y z vx vy vz omegax omegay omegaz 
1 0.0924022 -0.0184617 0 0.619036 -0.123708 0 0 0 -8.88312 
2 0.0375978 0.0234617 0 0.380964 0.123708 0 0 0 -8.88312 
ITEM: TIMESTEP
34000
ITEM: NUMBER OF ATOMS
2
ITEM: BOX BOUNDS ff ff ff
-1 1
-1 1
-1 1
ITEM: ATOMS id x y z vx vy vz omegax omegay omegaz 
1 0.0985926 -0.0196988 0 0.619036 -0.123708 0 0 0 -8.88312 
2 0.0414074 0.0246988 0 0.380964 0.123708 0 0 0 -8.88312 
ITEM: TIMESTEP
35000
ITEM: NUMBER OF ATOMS
2
ITEM: BOX BOUNDS ff ff ff
-1 1
-1 1
-1 1
ITEM: ATOMS id x y z vx vy vz omegax omegay omegaz 
1 0.104783 -0.0209359 0 0.619036 -0.123708 0 0 0 -8.88312 
2 0.0452171 0.0259359 0 0.380964 0.123708 0 0 0 -8.88312 
ITEM: TIMESTEP
36000
ITEM: NUMBER OF ATOMS
2
ITEM: BOX BOUNDS ff ff ff
-1 1
-1 1
-1 1
ITEM: ATOMS id x y z vx vy vz omegax omegay omegaz 
1 0.110973 -0.022173 0 0.619036 -0.123708 0 0 0 -8.88312 
2 0.0490267 0.027173 0 0.380964 0.123708 0 0 0 -8.88312 
ITEM: TIMESTEP
37000
ITEM: NUMBER OF ATOMS
2
ITEM: BOX BOUNDS ff ff ff
-1 1
-1 1
-1 1
ITEM: ATOMS id x y z vx vy vz omegax omegay omegaz 
1 0.117164 -0.02341 0 0.619036 -0.123708 0 0 0 -8.88312 
2 0.0528363 0.02841 0 0.380964 0.123708 0 0 0 -8.88312 
ITEM: TIMESTEP
38000
ITEM: NUMBER OF ATOMS
2
ITEM: BOX BOUNDS ff ff ff
-1 1
-1 1
-1 1
ITEM: ATOMS id x y z vx vy vz omegax omegay omegaz 
1 0.123354 -0.0246471 0 0.619036 -0.123708 0 0 0 -8.88312 
2 0.056646 0.0296471 0 0.380964 0.123708 0 0 0 -8.88312 
ITEM: TIMESTEP
39000
ITEM: NUMBER OF ATOMS
2
ITEM: BOX BOUNDS ff ff ff
-1 1
-1 1
-1 1
ITEM: ATOMS id x y z vx vy vz omegax omegay omegaz 
1 0.129544 -0.0258842 0 0.619036 -0.123708 0 0 0 -8.88312 
2 0.0604556 0.0308842 0 0.380964 0.123708 0 0 0 -8.88312 
ITEM: TIMESTEP
40000
ITEM: NUMBER OF ATOMS
2
ITEM: BOX BOUNDS ff ff ff
-1 1
-1 1
-1 1
ITEM: ATOMS id x y z vx vy vz omegax omegay omegaz 
1 0.135735 -0.0271213 0 0.619036 -0.123708 0 0 0 -8.88312 
2 0.0642653 0.0321213 0 0.380964 0.123708 0 0 0 -8.88312 
ITEM: TIMESTEP
41000
ITEM: NUMBER OF ATOMS
2
ITEM: BOX BOUNDS ff ff ff
-1 1
-1 1
-1 1
ITEM: ATOMS id x y z vx vy vz omegax omegay omegaz 
1 0.141925 -0.0283584 0 0.619036 -0.123708 0 0 0 -8.88312 
2 0.0680749 0.0333584 0 0.380964 0.123708 0 0 0 -8.88312 
ITEM: TIMESTEP
42000
ITEM: NUMBER OF ATOMS
2
ITEM: BOX BOUNDS ff ff ff
-1 1
-1 1
-1 1
ITEM: ATOMS id x y z vx vy vz omegax omegay omegaz 
1 0.148115 -0.0295955 0 0.619036 -0.123708 0 0 0 -8.88312 
2 0.0718845 0.0345955 0 0.380964 0.123708 0 0 0 -8.88312 
ITEM: TIMESTEP
43000
ITEM: NUMBER OF ATOMS
2
ITEM: BOX BOUNDS ff ff ff
-1 1
-1 1
-1 1
ITEM: ATOMS id x y z vx vy vz omegax omegay omegaz 
1 0.154306 -0.0308325 0 0.619036 -0.123708 0 0 0 -8.88312 
2 0.0756942 0.0358325 0 0.380964 0.123708 0 0 0 -8.88312 
ITEM: TIMESTEP
44000
ITEM: NUMBER OF ATOMS
2
ITEM: BOX BOUNDS ff ff ff
-1 1
-1 1
-1 1
ITEM: ATOMS id x y z vx vy vz omegax omegay omegaz 
1 0.160496 -0.0320696 0 0.619036 -0.123708 0 0 0 -8.88312 
2 0.0795038 0.0370696 0 0.380964 0.123708 0 0 0 -8.88312 
ITEM: TIMESTEP
45000
ITEM: NUMBER OF ATOMS
2
ITEM: BOX BOUNDS ff ff ff
-1 1
-1 1
-1 1
ITEM: ATOMS id x y z vx vy vz omegax omegay omegaz 
1 0.166687 -0.0333067 0 0.619036 -0.123708 0 0 0 -8.88312 
2 0.0833134 0.0383067 0 0.380964 0.123708 0 0 0 -8.88312 
ITEM: TIMESTEP
46000
ITEM: NUMBER OF ATOMS
2
ITEM: BOX BOUNDS ff ff ff
-1 1
-1 1
-1 1
ITEM: ATOMS id x y z vx vy vz omegax omegay omegaz 
1 0.172877 -0.0345438 0 0.619036 -0.123708 0 0 0 -8.88312 
2 0.0871231 0.0395438 0 0.380964 0.123708 0 0 0 -8.88312 
ITEM: TIMESTEP
47000
ITEM: NUMBER OF ATOMS
2
ITEM: BOX BOUNDS ff ff ff
-1 1
-1 1
-1 1
ITEM: ATOMS id x y z vx vy vz omegax omegay omegaz 
1 0.179067 -0.0357809 0 0.619036 -0.123708 0 0 0 -8.88312 
2 0.0909327 0.0407809 0 0.380964 0.123708 0 0 0 -8.88312 
ITEM: TIMESTEP
48000
ITEM: NUMBER OF ATOMS
2
ITEM: BOX BOUNDS ff ff ff
-1 1
-1 1
-1 1
ITEM: ATOMS id x y z vx vy vz omegax omegay omegaz 
1 0.185258 -0.0370179 0 0.619036 -0.123708 0 0 0 -8.88312 
2 0.0947424 0.0420179 0 0.380964 0.123708 0 0 0 -8.88312 
ITEM: TIMESTEP
49000
ITEM: NUMBER OF ATOMS
2
ITEM: BOX BOUNDS ff ff ff
-1 1
-1 1
-1 1
ITEM: ATOMS id x y z vx vy vz omegax omegay omegaz 
1 0.191448 -0.038255 0 0.619036 -0.123708 0 0 0 -8.88312 
2 0.098552 0.043255 0 0.380964 0.123708 0 0 0 -8.88312 
ITEM: TIMESTEP
50000
ITEM: NUMBER OF ATOMS
2
ITEM: BOX BOUNDS ff ff ff
-1 1
-1 1
-1 1
ITEM: ATOMS id x y z vx vy vz omegax omegay omegaz 
1 0.197638 -0.0394921 0 0.619036 -0.123708 0 0 0 -8.88312 
2 0.102362 0.0444921 0 0.380964 0.123708 0 0 0 -8.88312 
ITEM: TIMESTEP
51000
ITEM: NUMBER OF ATOMS
2
ITEM: BOX BOUNDS ff ff ff
-1 1
-1 1
-1 1
ITEM: ATOMS id x y z vx vy vz omegax omegay omegaz 
1 0.203829 -0.0407292 0 0.619036 -0.123708 0 0 0 -8.88312 
2 0.106171 0.0457292 0 0.380964 0.123708 0 0 0 -8.88312 
ITEM: TIMESTEP
52000
ITEM: NUMBER OF ATOMS
2
ITEM: BOX BOUNDS ff ff ff
-1 1
-1 1
-1 1
ITEM: ATOMS id x y z vx vy vz omegax omegay omegaz 
1 0.210019 -0.0419663 0 0.619036 -0.123708 0 0 0 -8.88312 
2 0.109981 0.0469663 0 0.380964 0.123708 0 0 0 -8.88312 
ITEM: TIMESTEP
53000
ITEM: NUMBER OF ATOMS
2
ITEM: BOX BOUNDS ff ff ff
-1 1
-1 1
-1 1
ITEM: ATOMS id x y z vx vy vz omegax omegay omegaz 
1 0.216209 -0.0432034 0 0.619036 -0.123708 0 0 0 -8.88312 
2 0.113791 0.0482034 0 0.380964 0.123708 0 0 0 -8.88312 
ITEM: TIMESTEP
54000
ITEM: NUMBER OF ATOMS
2
ITEM: BOX BOUNDS ff ff ff
-1 1
-1 1
-1 1
ITEM: ATOMS id x y z vx vy vz omegax omegay omegaz 
1 0.2224 -0.0444404 0 0.619036 -0.123708 0 0 0 -8.88312 
2 0.1176 0.0494404 0 0.380964 0.123708 0 0 0 -8.88312 
ITEM: TIMESTEP
55000
ITEM: NUMBER OF ATOMS
2
ITEM: BOX BOUNDS ff ff ff
-1 1
-1 1
-1 1
ITEM: ATOMS id x y z vx vy vz omegax omegay omegaz 
1 0.22859 -0.0456775 0 0.619036 -0.123708 0 0 0 -8.88312 
2 0.12141 0.0506775 0 0.380964 0.123708 0 0 0 -8.88312 
ITEM: TIMESTEP
56000
ITEM: NUMBER OF ATOMS
2
ITEM: BOX BOUNDS ff ff ff
-1 1
-1 1
-1 1
ITEM: ATOMS id x y z vx vy vz omegax omegay omegaz 
1 0.234781 -0.0469146 0 0.619036 -0.123708 0 0 0 -8.88312 
2 0.125219 0.0519146 0 0.380964 0.123708 0 0 0 -8.88312 
ITEM: TIMESTEP
57000
ITEM: NUMBER OF ATOMS
2
ITEM: BOX BOUNDS ff ff ff
-1 1
-1 1
-1 1
ITEM: ATOMS id x y z vx vy vz omegax omegay omegaz 
1 0.240971 -0.0481517 0 0.619036 -0.123708 0 0 0 -8.88312 
2 0.129029 0.0531517 0 0.380964 0.123708 0 0 0 -8.88312 
ITEM: TIMESTEP
58000
ITEM: NUMBER OF ATOMS
2
ITEM: BOX BOUNDS ff ff ff
-1 1
-1 1
-1 1
ITEM: ATOMS id x y z vx vy vz omegax omegay omegaz 
1 0.247161 -0.0493888 0 0.619036 -0.123708 0 0 0 -8.88312 
2 0.132839 0.0543888 0 0.380964 0.123708 0 0 0 -8.88312 
ITEM: TIMESTEP
59000
ITEM: NUMBER OF ATOMS
2
ITEM: BOX BOUNDS ff ff ff
-1 1
-1 1
-1 1
ITEM: ATOMS id x y z vx vy vz omegax omegay omegaz 
1 0.253352 -0.0506259 0 0.619036 -0.123708 0 0 0 -8.88312 
2 0.136648 0.0556259 0 0.380964 0.123708 0 0 0 -8.88312 
ITEM: TIMESTEP
60000
ITEM: NUMBER OF ATOMS
2
ITEM: BOX BOUNDS ff ff ff
-1 1
-1 1
-1 1
ITEM: ATOMS id x y z vx vy vz omegax omegay omegaz 
1 0.259542 -0.0518629 0 0.619036 -0.123708 0 0 0 -8.88312 
2 0.140458 0.0568629 0 0.380964 0.123708 0 0 0 -8.88312 
ITEM: TIMESTEP
61000
ITEM: NUMBER OF ATOMS
2
ITEM: BOX BOUNDS ff ff ff
-1 1
-1 1
-1 1
ITEM: ATOMS id x y z vx vy vz omegax omegay omegaz 
1 0.265732 -0.0531 0 0.619036 -0.123708 0 0 0 -8.88312 
2 0.144268 0.0581 0 0.380964 0.123708 0 0 0 -8.88312 
ITEM: TIMESTEP
62000
ITEM: NUMBER OF ATOMS
2
ITEM: BOX BOUNDS ff ff ff
-1 1
-1 1
-1 1
ITEM: ATOMS id x y z vx vy vz omegax omegay omegaz 
1 0.271923 -0.0543371 0 0.619036 -0.123708 0 0 0 -8.88312 
2 0.148077 0.0593371 0 0.380964 0.123708 0 0 0 -8.88312 
ITEM: TIMESTEP
63000
ITEM: NUMBER OF ATOMS
2
ITEM: BOX BOUNDS ff ff ff
-1 1
-1 1
-1 1
ITEM: ATOMS id x y z vx vy vz omegax omegay omegaz 
1 0.278113 -0.0555742 0 0.619036 -0.123708 0 0 0 -8.88312 
2 0.151887 0.0605742 0 0.380964 0.123708 0 0 0 -8.88312 
ITEM: TIMESTEP
64000
ITEM: NUMBER OF ATOMS
2
ITEM: BOX BOUNDS ff ff ff
-1 1
-1 1
-1 1
ITEM: ATOMS id x y z vx vy vz omegax omegay omegaz 
1 0.284303 -0.0568113 0 0.619036 -0.123708 0 0 0 -8.88312 
2 0.155697 0.0618113 0 0.380964 0.123708 0 0 0 -8.88312 
ITEM: TIMESTEP
65000
ITEM: NUMBER OF ATOMS
2
ITEM: BOX BOUNDS ff ff ff
-1 1
-1 1
-1 1
ITEM: ATOMS id x y z vx vy vz omegax omegay omegaz 
1 0.290494 -0.0580484 0 0.619036 -0.123708 0 0 0 -8.88312 
2 0.159506 0.0630484 0 0.380964 0.123708 0 0 0 -8.88312 
ITEM: TIMESTEP
66000
ITEM: NUMBER OF ATOMS
2
ITEM: BOX BOUNDS ff ff ff
-1 1
-1 1
-1 1
ITEM: ATOMS id x y z vx vy vz omegax omegay omegaz 
1 0.296684 -0.0592854 0 0.619036 -0.123708 0 0 0 -8.88312 
2 0.163316 0.0642854 0 0.380964 0.123708 0 0 0 -8.88312 
ITEM: TIMESTEP
67000
ITEM: NUMBER OF ATOMS
2
ITEM: BOX BOUNDS ff ff ff
-1 1
-1 1
-1 1
ITEM: ATOMS id x y z vx vy vz omegax omegay omegaz 
1 0.302875 -0.0605225 0 0.619036 -0.123708 0 0 0 -8.88312 
2 0.167125 0.0655225 0 0.380964 0.123708 0 0 0 -8.88312 
ITEM: TIMESTEP
68000
ITEM: NUMBER OF ATOMS
2
ITEM: BOX BOUNDS ff ff ff
-1 1
-1 1
-1 1
ITEM: ATOMS id x y z vx vy vz omegax omegay omegaz 
1 0.309065 -0.0617596 0 0.619036 -0.123708 0 0 0 -8.88312 
2 0.170935 0.0667596 0 0.380964 0.123708 0 0 0 -8.88312 
ITEM: TIMESTEP
69000
ITEM: NUMBER OF ATOMS
2
ITEM: BOX BOUNDS ff ff ff
-1 1
-1 1
-1 1
ITEM: ATOMS id x y z vx vy vz omegax omegay omegaz 
1 0.315255 -0.0629967 0 0.619036 -0.123708 0 0 0 -8.88312 
2 0.174745 0.0679967 0 0.380964 0.123708 0 0 0 -8.88312 
ITEM: TIMESTEP
70000
ITEM: NUMBER OF ATOMS
2
ITEM: BOX BOUNDS ff ff ff
-1 1
-1 1
-1 1
ITEM: ATOMS id x y z vx vy vz omegax omegay omegaz 
1 0.321446 -0.0642338 0 0.619036 -0.123708 0 0 0 -8.88312 
2 0.178554 0.0692338 0 0.380964 0.123708 0 0 0 -8.88312 
ITEM: TIMESTEP
71000
ITEM: NUMBER OF ATOMS
2
ITEM: BOX BOUNDS ff ff ff
-1 1
-1 1
-1 1
ITEM: ATOMS id x y z vx vy vz omegax omegay omegaz 
1 0.327636 -0.0654709 0 0.619036 -0.123708 0 0 0 -8.88312 
2 0.182364 0.0704709 0 0.380964 0.123708 0 0 0 -8.88312 
ITEM: TIMESTEP
72000
ITEM: NUMBER OF ATOMS
2
ITEM: BOX BOUNDS ff ff ff
-1 1
-1 1
-1 1
ITEM: ATOMS id x y z vx vy vz omegax omegay omegaz 
1 0.333826 -0.0667079 0 0.619036 -0.123708 0 0 0 -8.88312 
2 0.186174 0.0717079 0 0.380964 0.123708 0 0 0 -8.88312 
ITEM: TIMESTEP
73000
ITEM: NUMBER OF ATOMS
2
ITEM: BOX BOUNDS ff ff ff
-1 1
-1 1
-1 1
ITEM: ATOMS id x y z vx vy vz omegax omegay omegaz 
1 0.340017 -0.067945 0 0.619036 -0.123708 0 0 0 -8.88312 
2 0.189983 0.072945 0 0.380964 0.123708 0 0 0 -8.88312 
ITEM: TIMESTEP
74000
ITEM: NUMBER OF ATOMS
2
ITEM: BOX BOUNDS ff ff ff
-1 1
-1 1
-1 1
ITEM: ATOMS id x y z vx vy vz omegax omegay omegaz 
1 0.346207 -0.0691821 0 0.619036 -0.123708 0 0 0 -8.88312 
2 0.193793 0.0741821 0 0.380964 0.123708 0 0 0 -8.88312 
ITEM: TIMESTEP
75000
ITEM: NUMBER OF ATOMS
2
ITEM: BOX BOUNDS ff ff ff
-1 1
-1 1
-1 1
ITEM: ATOMS id x y z vx vy vz omegax omegay omegaz 
1 0.352397 -0.0704192 0 0.619036 -0.123708 0 0 0 -8.88312 
2 0.197603 0.0754192 0 0.380964 0.123708 0 0 0 -8.88312 
ITEM: TIMESTEP
76000
ITEM: NUMBER OF ATOMS
2
ITEM: BOX BOUNDS ff ff ff
-1 1
-1 1
-1 1
ITEM: ATOMS id x y z vx vy vz omegax omegay omegaz 
1 0.358588 -0.0716563 0 0.619036 -0.123708 0 0 0 -8.88312 
2 0.201412 0.0766563 0 0.380964 0.123708 0 0 0 -8.88312 
ITEM: TIMESTEP
77000
ITEM: NUMBER OF ATOMS
2
ITEM: BOX BOUNDS ff ff ff
-1 1
-1 1
-1 1
ITEM: ATOMS id x y z vx vy vz omegax omegay omegaz 
1 0.364778 -0.0728933 0 0.619036 -0.123708 0 0 0 -8.88312 
2 0.205222 0.0778933 0 0.380964 0.123708 0 0 0 -8.88312 
ITEM: TIMESTEP
78000
ITEM: NUMBER OF ATOMS
2
ITEM: BOX BOUNDS ff ff ff
-1 1
-1 1
-1 1
ITEM: ATOMS id x y z vx vy vz omegax omegay omegaz 
1 0.370969 -0.0741304 0 0.619036 -0.123708 0 0 0 -8.88312 
2 0.209031 0.0791304 0 0.380964 0.123708 0 0 0 -8.88312 
ITEM: TIMESTEP
79000
ITEM: NUMBER OF ATOMS
2
ITEM: BOX BOUNDS ff ff ff
-1 1
-1 1
-1 1
ITEM: ATOMS id x y z vx vy vz omegax omegay omegaz 
1 0.377159 -0.0753675 0 0.619036 -0.123708 0 0 0 -8.88312 
2 0.212841 0.0803675 0 0.380964 0.123708 0 0 0 -8.88312 
ITEM: TIMESTEP
80000
ITEM: NUMBER OF ATOMS
2
ITEM: BOX BOUNDS ff ff ff
-1 1
-1 1
-1 1
ITEM: ATOMS id x y z vx vy vz omegax omegay omegaz 
1 0.383349 -0.0766046 0 0.619036 -0.123708 0 0 0 -8.88312 
2 0.216651 0.0816046 0 0.380964 0.123708 0 0 0 -8.88312 
ITEM: TIMESTEP
81000
ITEM: NUMBER OF ATOMS
2
ITEM: BOX BOUNDS ff ff ff
-1 1
-1 1
-1 1
ITEM: ATOMS id x y z vx vy vz omegax omegay omegaz 
1 0.38954 -0.0778417 0 0.619036 -0.123708 0 0 0 -8.88312 
2 0.22046 0.0828417 0 0.380964 0.123708 0 0 0 -8.88312 
ITEM: TIMESTEP
82000
ITEM: NUMBER OF ATOMS
2
ITEM: BOX BOUNDS ff ff ff
-1 1
-1 1
-1 1
ITEM: ATOMS id x y z vx vy vz omegax omegay omegaz 
1 0.39573 -0.0790788 0 0.619036 -0.123708 0 0 0 -8.88312 
2 0.22427 0.0840788 0 0.380964 0.123708 0 0 0 -8.88312 
ITEM: TIMESTEP
83000
ITEM: NUMBER OF ATOMS
2
ITEM: BOX BOUNDS ff ff ff
-1 1
-1 1
-1 1
ITEM: ATOMS id x y z vx vy vz omegax omegay omegaz 
1 0.40192 -0.0803158 0 0.619036 -0.123708 0 0 0 -8.88312 
2 0.22808 0.0853158 0 0.380964 0.123708 0 0 0 -8.88312 
ITEM: TIMESTEP
84000
ITEM: NUMBER OF ATOMS
2
ITEM: BOX BOUNDS ff ff ff
-1 1
-1 1
-1 1
ITEM: ATOMS id x y z vx vy vz omegax omegay omegaz 
1 0.408111 -0.0815529 0 0.619036 -0.123708 0 0 0 -8.88312 
2 0.231889 0.0865529 0 0.380964 0.123708 0 0 0 -8.88312 
ITEM: TIMESTEP
85000
ITEM: NUMBER OF ATOMS
2
ITEM: BOX BOUNDS ff ff ff
-1 1
-1 1
-1 1
ITEM: ATOMS id x y z vx vy vz omegax omegay omegaz 
1 0.414301 -0.08279 0 0.619036 -0.123708 0 0 0 -8.88312 
2 0.235699 0.08779 0 0.380964 0.123708 0 0 0 -8.88312 
ITEM: TIMESTEP
86000
ITEM: NUMBER OF ATOMS
2
ITEM: BOX BOUNDS ff ff ff
-1 1
-1 1
-1 1
ITEM: ATOMS id x y z vx vy vz omegax omegay omegaz 
1 0.420491 -0.0840271 0 0.619036 -0.123708 0 0 0 -8.88312 
2 0.239509 0.0890271 0 0.380964 0.123708 0 0 0 -8.88312 
ITEM: TIMESTEP
87000
ITEM: NUMBER OF ATOMS
2
ITEM: BOX BOUNDS ff ff ff
-1 1
-1 1
-1 1
ITEM: ATOMS id x y z vx vy vz omegax omegay omegaz 
1 0.426682 -0.0852642 0 0.619036 -0.123708 0 0 0 -8.88312 
2 0.243318 0.0902642 0 0.380964 0.123708 0 0 0 -8.88312 
ITEM: TIMESTEP
88000
ITEM: NUMBER OF ATOMS
2
ITEM: BOX BOUNDS ff ff ff
-1 1
-1 1
-1 1
ITEM: ATOMS id x y z vx vy vz omegax omegay omegaz 
1 0.432872 -0.0865013 0 0.619036 -0.123708 0 0 0 -8.88312 
2 0.247128 0.0915013 0 0.380964 0.123708 0 0 0 -8.88312 
ITEM: TIMESTEP
89000
ITEM: NUMBER OF ATOMS
2
ITEM: BOX BOUNDS ff ff ff
-1 1
-1 1
-1 1
ITEM: ATOMS id x y z vx vy vz omegax omegay omegaz 
1 0.439063 -0.0877383 0 0.619036 -0.123708 0 0 0 -8.88312 
2 0.250937 0.0927383 0 0.380964 0.123708 0 0 0 -8.88312 
ITEM: TIMESTEP
90000
ITEM: NUMBER OF ATOMS
2
ITEM: BOX BOUNDS ff ff ff
-1 1
-1 1
-1 1
ITEM: ATOMS id x y z vx vy vz omegax omegay omegaz 
1 0.445253 -0.0889754 0 0.619036 -0.123708 0 0 0 -8.88312 
2 0.254747 0.0939754 0 0.380964 0.123708 0 0 0 -8.88312 
ITEM: TIMESTEP
91000
ITEM: NUMBER OF ATOMS
2
ITEM: BOX BOUNDS ff ff ff
-1 1
-1 1
-1 1
ITEM: ATOMS id x y z vx vy vz omegax omegay omegaz 
1 0.451443 -0.0902125 0 0.619036 -0.123708 0 0 0 -8.88312 
2 0.258557 0.0952125 0 0.380964 0.123708 0 0 0 -8.88312 
ITEM: TIMESTEP
92000
ITEM: NUMBER OF ATOMS
2
ITEM: BOX BOUNDS ff ff ff
-1 1
-1 1
-1 1
ITEM: ATOMS id x y z vx vy vz omegax omegay omegaz 
1 0.457634 -0.0914496 0 0.619036 -0.123708 0 0 0 -8.88312 
2 0.262366 0.0964496 0 0.380964 0.123708 0 0 0 -8.88312 
ITEM: TIMESTEP
93000
ITEM: NUMBER OF ATOMS
2
ITEM: BOX BOUNDS ff ff ff
-1 1
-1 1
-1 1
ITEM: ATOMS id x y z vx vy vz omegax omegay omegaz 
1 0.463824 -0.0926867 0 0.619036 -0.123708 0 0 0 -8.88312 
2 0.266176 0.0976867 0 0.380964 0.123708 0 0 0 -8.88312 
ITEM: TIMESTEP
94000
ITEM: NUMBER OF ATOMS
2
ITEM: BOX BOUNDS ff ff ff
-1 1
-1 1
-1 1
ITEM: ATOMS id x y z vx vy vz omegax omegay omegaz 
1 0.470014 -0.0939238 0 0.619036 -0.123708 0 0 0 -8.88312 
2 0.269986 0.0989238 0 0.380964 0.123708 0 0 0 -8.88312 
ITEM: TIMESTEP
95000
ITEM: NUMBER OF ATOMS
2
ITEM: BOX BOUNDS ff ff ff
-1 1
-1 1
-1 1
ITEM: ATOMS id x y z vx vy vz omegax omegay omegaz 
1 0.476205 -0.0951608 0 0.619036 -0.123708 0 0 0 -8.88312 
2 0.273795 0.100161 0 0.380964 0.123708 0 0 0 -8.88312 
ITEM: TIMESTEP
96000
ITEM: NUMBER OF ATOMS
2
ITEM: BOX BOUNDS ff ff ff
-1 1
-1 1
-1 1
ITEM: ATOMS id x y z vx vy vz omegax omegay omegaz 
1 0.482395 -0.0963979 0 0.619036 -0.123708 0 0 0 -8.88312 
2 0.277605 0.101398 0 0.380964 0.123708 0 0 0 -8.88312 
ITEM: TIMESTEP
97000
ITEM: NUMBER OF ATOMS
2
ITEM: BOX BOUNDS ff ff ff
-1 1
-1 1
-1 1
ITEM: ATOMS id x y z vx vy vz omegax omegay omegaz 
1 0.488585 -0.097635 0 0.619036 -0.123708 0 0 0 -8.88312 
2 0.281415 0.102635 0 0.380964 0.123708 0 0 0 -8.88312 
ITEM: TIMESTEP
98000
ITEM: NUMBER OF ATOMS
2
ITEM: BOX BOUNDS ff ff ff
-1 1
-1 1
-1 1
ITEM: ATOMS id x y z vx vy vz omegax omegay omegaz 
1 0.494776 -0.0988721 0 0.619036 -0.123708 0 0 0 -8.88312 
2 0.285224 0.103872 0 0.380964 0.123708 0 0 0 -8.88312 
ITEM: TIMESTEP
99000
ITEM: NUMBER OF ATOMS
2
ITEM: BOX BOUNDS ff ff ff
-1 1
-1 1
-1 1
ITEM: ATOMS id x y z vx vy vz omegax omegay omegaz 
1 0.500966 -0.100109 0 0.619036 -0.123708 0 0 0 -8.88312 
2 0.289034 0.105109 0 0.380964 0.123708 0 0 0 -8.88312 
ITEM: TIMESTEP
100000
ITEM: NUMBER OF ATOMS
2
ITEM: BOX BOUNDS ff ff ff
-1 1
-1 1
-1 1
ITEM: ATOMS id x y z vx vy vz omegax omegay omegaz 
1 0.507157 -0.101346 0 0.619036 -0.123708 0 0 0 -8.88312 
2 0.292843 0.106346 0 0.380964 0.123708 0 0 0 -8.88312 
ITEM: TIMESTEP
101000
ITEM: NUMBER OF ATOMS
2
ITEM: BOX BOUNDS ff ff ff
-1 1
-1 1
-1 1
ITEM: ATOMS id x y z vx vy vz omegax omegay omegaz 
1 0.513347 -0.102583 0 0.619036 -0.123708 0 0 0 -8.88312 
2 0.296653 0.107583 0 0.380964 0.123708 0 0 0 -8.88312 
ITEM: TIMESTEP
102000
ITEM: NUMBER OF ATOMS
2
ITEM: BOX BOUNDS ff ff ff
-1 1
-1 1
-1 1
ITEM: ATOMS id x y z vx vy vz omegax omegay omegaz 
1 0.519537 -0.10382 0 0.619036 -0.123708 0 0 0 -8.88312 
2 0.300463 0.10882 0 0.380964 0.123708 0 0 0 -8.88312 
ITEM: TIMESTEP
103000
ITEM: NUMBER OF ATOMS
2
ITEM: BOX BOUNDS ff ff ff
-1 1
-1 1
-1 1
ITEM: ATOMS id x y z vx vy vz omegax omegay omegaz 
1 0.525728 -0.105057 0 0.619036 -0.123708 0 0 0 -8.88312 
2 0.304272 0.110057 0 0.380964 0.123708 0 0 0 -8.88312 
ITEM: TIMESTEP
104000
ITEM: NUMBER OF ATOMS
2
ITEM: BOX BOUNDS ff ff ff
-1 1
-1 1
-1 1
ITEM: ATOMS id x y z vx vy vz omegax omegay omegaz 
1 0.531918 -0.106295 0 0.619036 -0.123708 0 0 0 -8.88312 
2 0.308082 0.111295 0 0.380964 0.123708 0 0 0 -8.88312 
ITEM: TIMESTEP
105000
ITEM: NUMBER OF ATOMS
2
ITEM: BOX BOUNDS ff ff ff
-1 1
-1 1
-1 1
ITEM: ATOMS id x y z vx vy vz omegax omegay omegaz 
1 0.538108 -0.107532 0 0.619036 -0.123708 0 0 0 -8.88312 
2 0.311892 0.112532 0 0.380964 0.123708 0 0 0 -8.88312 
ITEM: TIMESTEP
106000
ITEM: NUMBER OF ATOMS
2
ITEM: BOX BOUNDS ff ff ff
-1 1
-1 1
-1 1
ITEM: ATOMS id x y z vx vy vz omegax omegay omegaz 
1 0.544299 -0.108769 0 0.619036 -0.123708 0 0 0 -8.88312 
2 0.315701 0.113769 0 0.380964 0.123708 0 0 0 -8.88312 
ITEM: TIMESTEP
107000
ITEM: NUMBER OF ATOMS
2
ITEM: BOX BOUNDS ff ff ff
-1 1
-1 1
-1 1
ITEM: ATOMS id x y z vx vy vz omegax omegay omegaz 
1 0.550489 -0.110006 0 0.619036 -0.123708 0 0 0 -8.88312 
2 0.319511 0.115006 0 0.380964 0.123708 0 0 0 -8.88312 
ITEM: TIMESTEP
108000
ITEM: NUMBER OF ATOMS
2
ITEM: BOX BOUNDS ff ff ff
-1 1
-1 1
-1 1
ITEM: ATOMS id x y z vx vy vz omegax omegay omegaz 
1 0.556679 -0.111243 0 0.619036 -0.123708 0 0 0 -8.88312 
2 0.323321 0.116243 0 0.380964 0.123708 0 0 0 -8.88312 
ITEM: TIMESTEP
109000
ITEM: NUMBER OF ATOMS
2
ITEM: BOX BOUNDS ff ff ff
-1 1
-1 1
-1 1
ITEM: ATOMS id x y z vx vy vz omegax omegay omegaz 
1 0.56287 -0.11248 0 0.619036 -0.123708 0 0 0 -8.88312 
2 0.32713 0.11748 0 0.380964 0.123708 0 0 0 -8.88312 
ITEM: TIMESTEP
110000
ITEM: NUMBER OF ATOMS
2
ITEM: BOX BOUNDS ff ff ff
-1 1
-1 1
-1 1
ITEM: ATOMS id x y z vx vy vz omegax omegay omegaz 
1 0.56906 -0.113717 0 0.619036 -0.123708 0 0 0 -8.88312 
2 0.33094 0.118717 0 0.380964 0.123708 0 0 0 -8.88312 
ITEM: TIMESTEP
111000
ITEM: NUMBER OF ATOMS
2
ITEM: BOX BOUNDS ff ff ff
-1 1
-1 1
-1 1
ITEM: ATOMS id x y z vx vy vz omegax omegay omegaz 
1 0.57525 -0.114954 0 0.619036 -0.123708 0 0 0 -8.88312 
2 0.33475 0.119954 0 0.380964 0.123708 0 0 0 -8.88312 
ITEM: TIMESTEP
112000
ITEM: NUMBER OF ATOMS
2
ITEM: BOX BOUNDS ff ff ff
-1 1
-1 1
-1 1
ITEM: ATOMS id x y z vx vy vz omegax omegay omegaz 
1 0.581441 -0.116191 0 0.619036 -0.123708 0 0 0 -8.88312 
2 0.338559 0.121191 0 0.380964 0.123708 0 0 0 -8.88312 
ITEM: TIMESTEP
113000
ITEM: NUMBER OF ATOMS
2
ITEM: BOX BOUNDS ff ff ff
-1 1
-1 1
-1 1
ITEM: ATOMS id x y z vx vy vz omegax omegay omegaz 
1 0.587631 -0.117428 0 0.619036 -0.123708 0 0 0 -8.88312 
2 0.342369 0.122428 0 0.380964 0.123708 0 0 0 -8.88312 
ITEM: TIMESTEP
114000
ITEM: NUMBER OF ATOMS
2
ITEM: BOX BOUNDS ff ff ff
-1 1
-1 1
-1 1
ITEM: ATOMS id x y z vx vy vz omegax omegay omegaz 
1 0.593822 -0.118665 0 0.619036 -0.123708 0 0 0 -8.88312 
2 0.346178 0.123665 0 0.380964 0.123708 0 0 0 -8.88312 
ITEM: TIMESTEP
115000
ITEM: NUMBER OF ATOMS
2
ITEM: BOX BOUNDS ff ff ff
-1 1
-1 1
-1 1
ITEM: ATOMS id x y z vx vy vz omegax omegay omegaz 
1 0.600012 -0.119902 0 0.619036 -0.123708 0 0 0 -8.88312 
2 0.349988 0.124902 0 0.380964 0.123708 0 0 0 -8.88312 
ITEM: TIMESTEP
116000
ITEM: NUMBER OF ATOMS
2
ITEM: BOX BOUNDS ff ff ff
-1 1
-1 1
-1 1
ITEM: ATOMS id x y z vx vy vz omegax omegay omegaz 
1 0.606202 -0.12114 0 0.619036 -0.123708 0 0 0 -8.88312 
2 0.353798 0.12614 0 0.380964 0.123708 0 0 0 -8.88312 
ITEM: TIMESTEP
117000
ITEM: NUMBER OF ATOMS
2
ITEM: BOX BOUNDS ff ff ff
-1 1
-1 1
-1 1
ITEM: ATOMS id x y z vx vy vz omegax omegay omegaz 
1 0.612393 -0.122377 0 0.619036 -0.123708 0 0 0 -8.88312 
2 0.357607 0.127377 0 0.380964 0.123708 0 0 0 -8.88312 
ITEM: TIMESTEP
118000
ITEM: NUMBER OF ATOMS
2
ITEM: BOX BOUNDS ff ff ff
-1 1
-1 1
-1 1
ITEM: ATOMS id x y z vx vy vz omegax omegay omegaz 
1 0.618583 -0.123614 0 0.619036 -0.123708 0 0 0 -8.88312 
2 0.361417 0.128614 0 0.380964 0.123708 0 0 0 -8.88312 
ITEM: TIMESTEP
119000
ITEM: NUMBER OF ATOMS
2
ITEM: BOX BOUNDS ff ff ff
-1 1
-1 1
-1 1
ITEM: ATOMS id x y z vx vy vz omegax omegay omegaz 
1 0.624773 -0.124851 0 0.619036 -0.123708 0 0 0 -8.88312 
2 0.365227 0.129851 0 0.380964 0.123708 0 0 0 -8.88312 
ITEM: TIMESTEP
120000
ITEM: NUMBER OF ATOMS
2
ITEM: BOX BOUNDS ff ff ff
-1 1
-1 1
-1 1
ITEM: ATOMS id x y z vx vy vz omegax omegay omegaz 
1 0.630964 -0.126088 0 0.619036 -0.123708 0 0 0 -8.88312 
2 0.369036 0.131088 0 0.380964 0.123708 0 0 0 -8.88312 
ITEM: TIMESTEP
121000
ITEM: NUMBER OF ATOMS
2
ITEM: BOX BOUNDS ff ff ff
-1 1
-1 1
-1 1
ITEM: ATOMS id x y z vx vy vz omegax omegay omegaz 
1 0.637154 -0.127325 0 0.619036 -0.123708 0 0 0 -8.88312 
2 0.372846 0.132325 0 0.380964 0.123708 0 0 0 -8.88312 
ITEM: TIMESTEP
122000
ITEM: NUMBER OF ATOMS
2
ITEM: BOX BOUNDS ff ff ff
-1 1
-1 1
-1 1
ITEM: ATOMS id x y z vx vy vz omegax omegay omegaz 
1 0.643344 -0.128562 0 0.619036 -0.123708 0 0 0 -8.88312 
2 0.376656 0.133562 0 0.380964 0.123708 0 0 0 -8.88312 
ITEM: TIMESTEP
123000